
     Program BANDS v.7.1 starts on 17Oct2022 at 14:28:10 

     This program is part of the open-source Quantum ESPRESSO suite
     for quantum simulation of materials; please cite
         "P. Giannozzi et al., J. Phys.:Condens. Matter 21 395502 (2009);
         "P. Giannozzi et al., J. Phys.:Condens. Matter 29 465901 (2017);
         "P. Giannozzi et al., J. Chem. Phys. 152 154105 (2020);
          URL http://www.quantum-espresso.org", 
     in publications or presentations arising from this work. More details at
     http://www.quantum-espresso.org/quote

     Parallel version (MPI), running on     1 processors

     MPI processes distributed on     1 nodes
     541 MiB available memory on the printing compute node when the environment starts
 

     Reading xml data from directory:

     ./out/si.save/

     IMPORTANT: XC functional enforced from input :
     Exchange-correlation= PW
                           (   1   4   0   0   0   0   0)
     Any further DFT definition will be discarded
     Please, verify this is what you really want

 
     G-vector sticks info
     --------------------
     sticks:   dense  smooth     PW     G-vecs:    dense   smooth      PW
     Sum         295     295     91                 3287     3287     609
 
     Using Slab Decomposition
 
     Reading collected, re-writing distributed wavefunctions
     high-symmetry point: -0.5000 0.5000 0.5000   x coordinate   0.0000
     high-symmetry point:  0.0000 0.0000 0.0000   x coordinate   0.8660
     high-symmetry point: -1.0000 0.0000 0.0000   x coordinate   1.8660
     high-symmetry point: -0.7500 0.7500 0.0000   x coordinate   2.6566
     high-symmetry point:  0.0000 0.0000 0.0000   x coordinate   3.7173

     Plottable bands (eV) written to file dft_bands.gnu
     Bands written to file dft_bands

 **************************************************************************

                    xk=(  -0.50000,   0.50000,   0.50000  )

     zone border point and non-symmorphic group 
     symmetry decomposition not available

 **************************************************************************

 **************************************************************************

                    xk=(  -0.44444,   0.44444,   0.44444  )

     point group C_3v (3m)  
     there are  3 classes
     the character table:

       E     2C3   3s_v 
A_1    1.00  1.00  1.00
A_2    1.00  1.00 -1.00
E      2.00 -1.00  0.00

     the symmetry operations in each class and the name of the first element:

     E        1
                                                                 
     2C3      2    3
                                                                 
     3s_v     4    5    6
                                                                 

     Band symmetry, C_3v (3m)   point group:

     e(  1 -  1) =     -3.74582  eV     1   --> A_1  L_1       
     e(  2 -  2) =     -0.70809  eV     1   --> A_1  L_1       
     e(  3 -  4) =      4.87284  eV     2   --> E    L_3       
     e(  5 -  5) =      7.50727  eV     1   --> A_1  L_1       
     e(  6 -  7) =      9.39560  eV     2   --> E    L_3       
     e(  8 -  8) =     13.61884  eV     1   --> A_1  L_1       
     e(  9 - 10) =     15.84733  eV     2   --> E    L_3       

 **************************************************************************

 **************************************************************************

                    xk=(  -0.38889,   0.38889,   0.38889  )

     Band symmetry, C_3v (3m)   point group:

     e(  1 -  1) =     -4.11815  eV     1   --> A_1  L_1       
     e(  2 -  2) =     -0.10840  eV     1   --> A_1  L_1       
     e(  3 -  4) =      4.93903  eV     2   --> E    L_3       
     e(  5 -  5) =      7.57743  eV     1   --> A_1  L_1       
     e(  6 -  7) =      9.46108  eV     2   --> E    L_3       
     e(  8 -  8) =     13.71587  eV     1   --> A_1  L_1       
     e(  9 - 10) =     14.87804  eV     2   --> E    L_3       

 **************************************************************************

 **************************************************************************

                    xk=(  -0.33333,   0.33333,   0.33333  )

     Band symmetry, C_3v (3m)   point group:

     e(  1 -  1) =     -4.53986  eV     1   --> A_1  L_1       
     e(  2 -  2) =      0.69105  eV     1   --> A_1  L_1       
     e(  3 -  4) =      5.04925  eV     2   --> E    L_3       
     e(  5 -  5) =      7.70308  eV     1   --> A_1  L_1       
     e(  6 -  7) =      9.53599  eV     2   --> E    L_3       
     e(  8 -  8) =     13.73303  eV     1   --> A_1  L_1       
     e(  9 - 10) =     14.06339  eV     2   --> E    L_3       

 **************************************************************************

 **************************************************************************

                    xk=(  -0.27778,   0.27778,   0.27778  )

     Band symmetry, C_3v (3m)   point group:

     e(  1 -  1) =     -4.93776  eV     1   --> A_1  L_1       
     e(  2 -  2) =      1.60903  eV     1   --> A_1  L_1       
     e(  3 -  4) =      5.20041  eV     2   --> E    L_3       
     e(  5 -  5) =      7.87543  eV     1   --> A_1  L_1       
     e(  6 -  7) =      9.55928  eV     2   --> E    L_3       
     e(  8 -  8) =     13.22721  eV     1   --> A_1  L_1       
     e(  9 - 10) =     13.47026  eV     2   --> E    L_3       

 **************************************************************************

 **************************************************************************

                    xk=(  -0.22222,   0.22222,   0.22222  )

     Band symmetry, C_3v (3m)   point group:

     e(  1 -  1) =     -5.28065  eV     1   --> A_1  L_1       
     e(  2 -  2) =      2.60625  eV     1   --> A_1  L_1       
     e(  3 -  4) =      5.38802  eV     2   --> E    L_3       
     e(  5 -  5) =      8.08736  eV     1   --> A_1  L_1       
     e(  6 -  7) =      9.46545  eV     2   --> E    L_3       
     e(  8 -  8) =     12.33139  eV     1   --> A_1  L_1       
     e(  9 - 10) =     13.17774  eV     2   --> E    L_3       

 **************************************************************************

 **************************************************************************

                    xk=(  -0.16667,   0.16667,   0.16667  )

     Band symmetry, C_3v (3m)   point group:

     e(  1 -  1) =     -5.55519  eV     1   --> A_1  L_1       
     e(  2 -  2) =      3.64852  eV     1   --> A_1  L_1       
     e(  3 -  4) =      5.60122  eV     2   --> E    L_3       
     e(  5 -  5) =      8.31346  eV     1   --> A_1  L_1       
     e(  6 -  7) =      9.23425  eV     2   --> E    L_3       
     e(  8 -  8) =     11.34881  eV     1   --> A_1  L_1       
     e(  9 - 10) =     13.18952  eV     2   --> E    L_3       

 **************************************************************************

 **************************************************************************

                    xk=(  -0.11111,   0.11111,   0.11111  )

     Band symmetry, C_3v (3m)   point group:

     e(  1 -  1) =     -5.75496  eV     1   --> A_1  L_1       
     e(  2 -  2) =      4.69038  eV     1   --> A_1  L_1       
     e(  3 -  4) =      5.81501  eV     2   --> E    L_3       
     e(  5 -  5) =      8.52282  eV     1   --> A_1  L_1       
     e(  6 -  7) =      8.93600  eV     2   --> E    L_3       
     e(  8 -  8) =     10.36811  eV     1   --> A_1  L_1       
     e(  9 - 10) =     13.41498  eV     2   --> E    L_3       

 **************************************************************************

 **************************************************************************

                    xk=(  -0.05556,   0.05556,   0.05556  )

     Band symmetry, C_3v (3m)   point group:

     e(  1 -  1) =     -5.87620  eV     1   --> A_1  L_1       
     e(  2 -  2) =      5.61286  eV     1   --> A_1  L_1       
     e(  3 -  4) =      5.98614  eV     2   --> E    L_3       
     e(  5 -  5) =      8.63116  eV     1   --> A_1  L_1       
     e(  6 -  7) =      8.68367  eV     2   --> E    L_3       
     e(  8 -  8) =      9.53428  eV     1   --> A_1  L_1       
     e(  9 - 10) =     13.70628  eV     2   --> E    L_3       

 **************************************************************************

 **************************************************************************

                    xk=(   0.00000,   0.00000,   0.00000  )

     point group O_h (m-3m) 
     there are 10 classes
     the character table:

       E     8C3   3C2   6C4   6C2'  i     8S6   3s_h  6S4   6s_d 
A_1g   1.00  1.00  1.00  1.00  1.00  1.00  1.00  1.00  1.00  1.00
A_2g   1.00  1.00  1.00 -1.00 -1.00  1.00  1.00  1.00 -1.00 -1.00
E_g    2.00 -1.00  2.00  0.00  0.00  2.00 -1.00  2.00  0.00  0.00
T_1g   3.00  0.00 -1.00  1.00 -1.00  3.00  0.00 -1.00  1.00 -1.00
T_2g   3.00  0.00 -1.00 -1.00  1.00  3.00  0.00 -1.00 -1.00  1.00
A_1u   1.00  1.00  1.00  1.00  1.00 -1.00 -1.00 -1.00 -1.00 -1.00
A_2u   1.00  1.00  1.00 -1.00 -1.00 -1.00 -1.00 -1.00  1.00  1.00
E_u    2.00 -1.00  2.00  0.00  0.00 -2.00  1.00 -2.00  0.00  0.00
T_1u   3.00  0.00 -1.00  1.00 -1.00 -3.00  0.00  1.00 -1.00  1.00
T_2u   3.00  0.00 -1.00 -1.00  1.00 -3.00  0.00  1.00  1.00 -1.00

     the symmetry operations in each class and the name of the first element:

     E        1
                                                                 
     8C3     17   19   20   18   24   21   22   23
                                                                 
     3C2      2    4    3
                                                                 
     6C4      7    8   15   16   12   11
                                                                 
     6C2'     5    6   14   13   10    9
                                                                 
     i       25
                                                                 
     8S6     41   43   44   42   48   45   46   47
                                                                 
     3s_h    26   28   27
                                                                 
     6S4     31   32   39   40   36   35
                                                                 
     6s_d    29   30   38   37   34   33
                                                                 

     Band symmetry, O_h (m-3m)  point group:

     e(  1 -  1) =     -5.91673  eV     1   --> A_1g G_1   G_1+
     e(  2 -  4) =      6.05452  eV     3   --> T_2g G_25' G_5+
     e(  5 -  7) =      8.58394  eV     3   --> T_1u G_15  G_4-
     e(  8 -  8) =      9.21591  eV     1   --> A_2u G_2'  G_2-
     e(  9 -  9) =     13.72463  eV     1   --> A_1g G_1   G_1+
     e( 10 - 10) =     13.84954  eV     1   -->   ?

 **************************************************************************

 **************************************************************************

                    xk=(  -0.09091,   0.00000,   0.00000  )

     point group C_4v (4mm) 
     there are  5 classes
     the character table:

       E     2C4   C2    2s_v  2s_d 
A_1    1.00  1.00  1.00  1.00  1.00
A_2    1.00  1.00  1.00 -1.00 -1.00
B_1    1.00 -1.00  1.00  1.00 -1.00
B_2    1.00 -1.00  1.00 -1.00  1.00
E      2.00  0.00 -2.00  0.00  0.00

     the symmetry operations in each class and the name of the first element:

     E        1
                                                                 
     2C4      3    4
                                                                 
     C2       2
                                                                 
     2s_v     5    6
                                                                 
     2s_d     7    8
                                                                 

     Band symmetry, C_4v (4mm)  point group:

     e(  1 -  1) =     -5.88053  eV     1   --> A_1  G_1 D_1   
     e(  2 -  2) =      5.81166  eV     1   --> B_2  G_4 D_2'  
     e(  3 -  4) =      5.90541  eV     2   --> E    G_5 D_5   
     e(  5 -  5) =      8.49169  eV     1   --> A_1  G_1 D_1   
     e(  6 -  7) =      8.77718  eV     2   --> E    G_5 D_5   
     e(  8 -  8) =      9.45094  eV     1   --> B_2  G_4 D_2'  
     e(  9 -  9) =     13.55650  eV     1   --> B_2  G_4 D_2'  
     e( 10 - 10) =     13.88792  eV     1   --> A_1  G_1 D_1   

 **************************************************************************

 **************************************************************************

                    xk=(  -0.18182,   0.00000,   0.00000  )

     Band symmetry, C_4v (4mm)  point group:

     e(  1 -  1) =     -5.77187  eV     1   --> A_1  G_1 D_1   
     e(  2 -  2) =      5.23216  eV     1   --> B_2  G_4 D_2'  
     e(  3 -  4) =      5.55462  eV     2   --> E    G_5 D_5   
     e(  5 -  5) =      8.24869  eV     1   --> A_1  G_1 D_1   
     e(  6 -  7) =      9.26178  eV     2   --> E    G_5 D_5   
     e(  8 -  8) =      9.96878  eV     1   --> B_2  G_4 D_2'  
     e(  9 -  9) =     12.94371  eV     1   --> B_2  G_4 D_2'  
     e( 10 - 10) =     14.01768  eV     1   --> A_2  G_2 D_1'  

 **************************************************************************

 **************************************************************************

                    xk=(  -0.27273,   0.00000,   0.00000  )

     Band symmetry, C_4v (4mm)  point group:

     e(  1 -  1) =     -5.59218  eV     1   --> A_1  G_1 D_1   
     e(  2 -  2) =      4.50752  eV     1   --> B_2  G_4 D_2'  
     e(  3 -  4) =      5.13489  eV     2   --> E    G_5 D_5   
     e(  5 -  5) =      7.92334  eV     1   --> A_1  G_1 D_1   
     e(  6 -  7) =      9.89903  eV     2   --> E    G_5 D_5   
     e(  8 -  8) =     10.34449  eV     1   --> B_2  G_4 D_2'  
     e(  9 -  9) =     12.49789  eV     1   --> B_2  G_4 D_2'  
     e( 10 - 10) =     14.22014  eV     1   --> A_2  G_2 D_1'  

 **************************************************************************

 **************************************************************************

                    xk=(  -0.36364,   0.00000,   0.00000  )

     Band symmetry, C_4v (4mm)  point group:

     e(  1 -  1) =     -5.34213  eV     1   --> A_1  G_1 D_1   
     e(  2 -  2) =      3.72502  eV     1   --> B_2  G_4 D_2'  
     e(  3 -  4) =      4.71634  eV     2   --> E    G_5 D_5   
     e(  5 -  5) =      7.57763  eV     1   --> A_1  G_1 D_1   
     e(  6 -  6) =     10.09657  eV     1   --> B_2  G_4 D_2'  
     e(  7 -  8) =     10.61586  eV     2   --> E    G_5 D_5   
     e(  9 -  9) =     12.76036  eV     1   --> B_2  G_4 D_2'  
     e( 10 - 10) =     14.49980  eV     1   --> A_2  G_2 D_1'  

 **************************************************************************

 **************************************************************************

                    xk=(  -0.45455,   0.00000,   0.00000  )

     Band symmetry, C_4v (4mm)  point group:

     e(  1 -  1) =     -5.02213  eV     1   --> A_1  G_1 D_1   
     e(  2 -  2) =      2.91914  eV     1   --> B_2  G_4 D_2'  
     e(  3 -  4) =      4.33031  eV     2   --> E    G_5 D_5   
     e(  5 -  5) =      7.25100  eV     1   --> A_1  G_1 D_1   
     e(  6 -  6) =      9.45415  eV     1   --> B_2  G_4 D_2'  
     e(  7 -  8) =     11.38073  eV     2   --> E    G_5 D_5   
     e(  9 -  9) =     13.52244  eV     1   --> B_2  G_4 D_2'  
     e( 10 - 10) =     14.85897  eV     1   --> A_2  G_2 D_1'  

 **************************************************************************

 **************************************************************************

                    xk=(  -0.54545,   0.00000,   0.00000  )

     Band symmetry, C_4v (4mm)  point group:

     e(  1 -  1) =     -4.63387  eV     1   --> A_1  G_1 D_1   
     e(  2 -  2) =      2.10524  eV     1   --> B_2  G_4 D_2'  
     e(  3 -  4) =      3.99146  eV     2   --> E    G_5 D_5   
     e(  5 -  5) =      6.97041  eV     1   --> A_1  G_1 D_1   
     e(  6 -  6) =      8.77006  eV     1   --> B_2  G_4 D_2'  
     e(  7 -  8) =     12.17750  eV     2   --> E    G_5 D_5   
     e(  9 -  9) =     14.44050  eV     1   --> B_2  G_4 D_2'  
     e( 10 - 10) =     15.29787  eV     1   --> A_2  G_2 D_1'  

 **************************************************************************

 **************************************************************************

                    xk=(  -0.63636,   0.00000,   0.00000  )

     Band symmetry, C_4v (4mm)  point group:

     e(  1 -  1) =     -4.18005  eV     1   --> A_1  G_1 D_1   
     e(  2 -  2) =      1.29131  eV     1   --> B_2  G_4 D_2'  
     e(  3 -  4) =      3.70767  eV     2   --> E    G_5 D_5   
     e(  5 -  5) =      6.74951  eV     1   --> A_1  G_1 D_1   
     e(  6 -  6) =      8.14809  eV     1   --> B_2  G_4 D_2'  
     e(  7 -  8) =     12.99107  eV     2   --> E    G_5 D_5   
     e(  9 -  9) =     15.40032  eV     1   --> B_2  G_4 D_2'  
     e( 10 - 10) =     15.81463  eV     1   --> A_2  G_2 D_1'  

 **************************************************************************

 **************************************************************************

                    xk=(  -0.72727,   0.00000,   0.00000  )

     Band symmetry, C_4v (4mm)  point group:

     e(  1 -  1) =     -3.66347  eV     1   --> A_1  G_1 D_1   
     e(  2 -  2) =      0.48817  eV     1   --> B_2  G_4 D_2'  
     e(  3 -  4) =      3.48330  eV     2   --> E    G_5 D_5   
     e(  5 -  5) =      6.60176  eV     1   --> A_1  G_1 D_1   
     e(  6 -  6) =      7.62186  eV     1   --> B_2  G_4 D_2'  
     e(  7 -  8) =     13.82696  eV     2   --> E    G_5 D_5   
     e(  9 -  9) =     16.35232  eV     1   --> B_2  G_4 D_2'  
     e( 10 - 10) =     16.41106  eV     1   --> A_2  G_2 D_1'  

 **************************************************************************

 **************************************************************************

                    xk=(  -0.81818,   0.00000,   0.00000  )

     Band symmetry, C_4v (4mm)  point group:

     e(  1 -  1) =     -3.08756  eV     1   --> A_1  G_1 D_1   
     e(  2 -  2) =     -0.29660  eV     1   --> B_2  G_4 D_2'  
     e(  3 -  4) =      3.32138  eV     2   --> E    G_5 D_5   
     e(  5 -  5) =      6.53530  eV     1   --> A_1  G_1 D_1   
     e(  6 -  6) =      7.20322  eV     1   --> B_2  G_4 D_2'  
     e(  7 -  8) =     14.67495  eV     2   --> E    G_5 D_5   
     e(  9 -  9) =     17.08541  eV     1   --> A_2  G_2 D_1'  
     e( 10 - 10) =     17.26827  eV     1   --> B_2  G_4 D_2'  

 **************************************************************************

 **************************************************************************

                    xk=(  -0.90909,   0.00000,   0.00000  )

     Band symmetry, C_4v (4mm)  point group:

     e(  1 -  1) =     -2.45690  eV     1   --> A_1  G_1 D_1   
     e(  2 -  2) =     -1.05383  eV     1   --> B_2  G_4 D_2'  
     e(  3 -  4) =      3.22375  eV     2   --> E    G_5 D_5   
     e(  5 -  5) =      6.55694  eV     1   --> A_1  G_1 D_1   
     e(  6 -  6) =      6.88561  eV     1   --> B_2  G_4 D_2'  
     e(  7 -  8) =     15.50340  eV     2   --> E    G_5 D_5   
     e(  9 - 10) =     17.62807  eV     2   --> E    G_5 D_5   

 **************************************************************************

 **************************************************************************

                    xk=(  -1.00000,   0.00000,   0.00000  )

     zone border point and non-symmorphic group 
     symmetry decomposition not available

 **************************************************************************

 **************************************************************************

                    xk=(  -0.97222,   0.08333,  -0.00000  )

     point group C_s (m)    
     there are  2 classes
     the character table:

       E     s    
A'     1.00  1.00
A''    1.00 -1.00

     the symmetry operations in each class and the name of the first element:

     E        1
                                                                 
     s        2
                                                                 

     Band symmetry, C_s (m)     point group:

     e(  1 -  1) =     -1.97740  eV     1   --> A'             
     e(  2 -  2) =     -1.55216  eV     1   --> A''            
     e(  3 -  3) =      3.09816  eV     1   --> A'             
     e(  4 -  4) =      3.10746  eV     1   --> A''            
     e(  5 -  5) =      6.79771  eV     1   --> A'             
     e(  6 -  6) =      6.89317  eV     1   --> A''            
     e(  7 -  7) =     15.56641  eV     1   --> A''            
     e(  8 -  8) =     15.81534  eV     1   --> A'             
     e(  9 -  9) =     16.72611  eV     1   --> A'             
     e( 10 - 10) =     16.99131  eV     1   --> A''            

 **************************************************************************

 **************************************************************************

                    xk=(  -0.94444,   0.16667,  -0.00000  )

     Band symmetry, C_s (m)     point group:

     e(  1 -  1) =     -2.14356  eV     1   --> A'             
     e(  2 -  2) =     -1.32075  eV     1   --> A''            
     e(  3 -  3) =      2.85820  eV     1   --> A'             
     e(  4 -  4) =      2.92307  eV     1   --> A''            
     e(  5 -  5) =      7.22891  eV     1   --> A'             
     e(  6 -  6) =      7.39723  eV     1   --> A''            
     e(  7 -  7) =     14.40646  eV     1   --> A''            
     e(  8 -  8) =     15.31105  eV     1   --> A'             
     e(  9 -  9) =     16.17479  eV     1   --> A'             
     e( 10 - 10) =     17.13816  eV     1   --> A''            

 **************************************************************************

 **************************************************************************

                    xk=(  -0.91667,   0.25000,   0.00000  )

     Band symmetry, C_s (m)     point group:

     e(  1 -  1) =     -2.26996  eV     1   --> A'             
     e(  2 -  2) =     -1.10865  eV     1   --> A''            
     e(  3 -  3) =      2.55582  eV     1   --> A'             
     e(  4 -  4) =      2.74827  eV     1   --> A''            
     e(  5 -  5) =      7.87402  eV     1   --> A'             
     e(  6 -  6) =      8.09652  eV     1   --> A''            
     e(  7 -  7) =     13.10251  eV     1   --> A''            
     e(  8 -  8) =     14.58005  eV     1   --> A'             
     e(  9 -  9) =     15.77224  eV     1   --> A'             
     e( 10 - 10) =     17.26852  eV     1   --> A''            

 **************************************************************************

 **************************************************************************

                    xk=(  -0.88889,   0.33333,  -0.00000  )

     Band symmetry, C_s (m)     point group:

     e(  1 -  1) =     -2.35439  eV     1   --> A'             
     e(  2 -  2) =     -0.94954  eV     1   --> A''            
     e(  3 -  3) =      2.25739  eV     1   --> A'             
     e(  4 -  4) =      2.66952  eV     1   --> A''            
     e(  5 -  5) =      8.66110  eV     1   --> A'             
     e(  6 -  6) =      8.92611  eV     1   --> A''            
     e(  7 -  7) =     11.81355  eV     1   --> A''            
     e(  8 -  8) =     13.77099  eV     1   --> A'             
     e(  9 -  9) =     15.44717  eV     1   --> A'             
     e( 10 - 10) =     17.14146  eV     1   --> A''            

 **************************************************************************

 **************************************************************************

                    xk=(  -0.86111,   0.41667,   0.00000  )

     Band symmetry, C_s (m)     point group:

     e(  1 -  1) =     -2.39720  eV     1   --> A'             
     e(  2 -  2) =     -0.87122  eV     1   --> A''            
     e(  3 -  3) =      2.00115  eV     1   --> A'             
     e(  4 -  4) =      2.73641  eV     1   --> A''            
     e(  5 -  5) =      9.54128  eV     1   --> A'             
     e(  6 -  6) =      9.78226  eV     1   --> A''            
     e(  7 -  7) =     10.65357  eV     1   --> A''            
     e(  8 -  8) =     12.97247  eV     1   --> A'             
     e(  9 -  9) =     15.13487  eV     1   --> A'             
     e( 10 - 10) =     16.76733  eV     1   --> A''            

 **************************************************************************

 **************************************************************************

                    xk=(  -0.83333,   0.50000,   0.00000  )

     Band symmetry, C_s (m)     point group:

     e(  1 -  1) =     -2.39970  eV     1   --> A'             
     e(  2 -  2) =     -0.87946  eV     1   --> A''            
     e(  3 -  3) =      1.80864  eV     1   --> A'             
     e(  4 -  4) =      2.95012  eV     1   --> A''            
     e(  5 -  5) =      9.31337  eV     1   --> A''            
     e(  6 -  6) =     10.46948  eV     1   --> A'             
     e(  7 -  7) =     10.98668  eV     1   --> A''            
     e(  8 -  8) =     12.23192  eV     1   --> A'             
     e(  9 -  9) =     14.81045  eV     1   --> A'             
     e( 10 - 10) =     16.23974  eV     1   --> A''            

 **************************************************************************

 **************************************************************************

                    xk=(  -0.80556,   0.58333,   0.00000  )

     Band symmetry, C_s (m)     point group:

     e(  1 -  1) =     -2.36427  eV     1   --> A'             
     e(  2 -  2) =     -0.95262  eV     1   --> A''            
     e(  3 -  3) =      1.69257  eV     1   --> A'             
     e(  4 -  4) =      3.25765  eV     1   --> A''            
     e(  5 -  5) =      8.32238  eV     1   --> A''            
     e(  6 -  6) =     11.14101  eV     1   --> A'             
     e(  7 -  7) =     11.84449  eV     1   --> A'             
     e(  8 -  8) =     12.04675  eV     1   --> A''            
     e(  9 -  9) =     14.47455  eV     1   --> A'             
     e( 10 - 10) =     15.63582  eV     1   --> A''            

 **************************************************************************

 **************************************************************************

                    xk=(  -0.77778,   0.66667,   0.00000  )

     Band symmetry, C_s (m)     point group:

     e(  1 -  1) =     -2.29250  eV     1   --> A'             
     e(  2 -  2) =     -1.06249  eV     1   --> A''            
     e(  3 -  3) =      1.66025  eV     1   --> A'             
     e(  4 -  4) =      3.54353  eV     1   --> A''            
     e(  5 -  5) =      7.54373  eV     1   --> A''            
     e(  6 -  6) =     10.69775  eV     1   --> A'             
     e(  7 -  7) =     12.64953  eV     1   --> A'             
     e(  8 -  8) =     13.17447  eV     1   --> A''            
     e(  9 -  9) =     14.14167  eV     1   --> A'             
     e( 10 - 10) =     15.02091  eV     1   --> A''            

 **************************************************************************

 **************************************************************************

                    xk=(  -0.75000,   0.75000,   0.00000  )

     point group C_2v (mm2) 
     there are  4 classes
     the character table:

       E     C2    s_v   s_v' 
A_1    1.00  1.00  1.00  1.00
A_2    1.00  1.00 -1.00 -1.00
B_1    1.00 -1.00  1.00 -1.00
B_2    1.00 -1.00 -1.00  1.00

     the symmetry operations in each class and the name of the first element:

     E        1
                                                                 
     C2       2
                                                                 
     s_v      4
                                                                 
     s_v'     3
                                                                 

     Band symmetry, C_2v (mm2)  point group:

     e(  1 -  1) =     -2.18535  eV     1   --> A_1  D_1  S_1  
     e(  2 -  2) =     -1.18845  eV     1   --> B_1  D_3  S_3  
     e(  3 -  3) =      1.71503  eV     1   --> A_1  D_1  S_1  
     e(  4 -  4) =      3.61932  eV     1   --> A_2  D_2  S_2  
     e(  5 -  5) =      7.17148  eV     1   --> B_1  D_3  S_3  
     e(  6 -  6) =     10.11889  eV     1   --> A_1  D_1  S_1  
     e(  7 -  7) =     13.46990  eV     1   --> B_2  D_4  S_4  
     e(  8 -  8) =     14.00226  eV     1   --> A_1  D_1  S_1  
     e(  9 -  9) =     14.14919  eV     1   --> B_1  D_3  S_3  
     e( 10 - 10) =     14.60474  eV     1   --> A_2  D_2  S_2  

 **************************************************************************

 **************************************************************************

                    xk=(  -0.69231,   0.69231,   0.00000  )

     Band symmetry, C_2v (mm2)  point group:

     e(  1 -  1) =     -2.48908  eV     1   --> A_1  D_1  S_1  
     e(  2 -  2) =     -0.88675  eV     1   --> B_1  D_3  S_3  
     e(  3 -  3) =      1.59912  eV     1   --> A_1  D_1  S_1  
     e(  4 -  4) =      3.82941  eV     1   --> A_2  D_2  S_2  
     e(  5 -  5) =      7.41673  eV     1   --> B_1  D_3  S_3  
     e(  6 -  6) =     11.30015  eV     1   --> A_1  D_1  S_1  
     e(  7 -  7) =     12.78163  eV     1   --> B_2  D_4  S_4  
     e(  8 -  8) =     13.30537  eV     1   --> A_1  D_1  S_1  
     e(  9 -  9) =     13.59130  eV     1   --> B_1  D_3  S_3  
     e( 10 - 10) =     14.00347  eV     1   --> A_2  D_2  S_2  

 **************************************************************************

 **************************************************************************

                    xk=(  -0.63462,   0.63462,   0.00000  )

     Band symmetry, C_2v (mm2)  point group:

     e(  1 -  1) =     -2.87065  eV     1   --> A_1  D_1  S_1  
     e(  2 -  2) =     -0.52447  eV     1   --> B_1  D_3  S_3  
     e(  3 -  3) =      1.65098  eV     1   --> A_1  D_1  S_1  
     e(  4 -  4) =      4.07232  eV     1   --> A_2  D_2  S_2  
     e(  5 -  5) =      7.69957  eV     1   --> B_1  D_3  S_3  
     e(  6 -  6) =     12.13204  eV     1   --> B_2  D_4  S_4  
     e(  7 -  7) =     12.20478  eV     1   --> A_1  D_1  S_1  
     e(  8 -  8) =     12.98749  eV     1   --> A_1  D_1  S_1  
     e(  9 -  9) =     13.06685  eV     1   --> B_1  D_3  S_3  
     e( 10 - 10) =     13.46517  eV     1   --> A_2  D_2  S_2  

 **************************************************************************

 **************************************************************************

                    xk=(  -0.57692,   0.57692,   0.00000  )

     Band symmetry, C_2v (mm2)  point group:

     e(  1 -  1) =     -3.29547  eV     1   --> A_1  D_1  S_1  
     e(  2 -  2) =     -0.10262  eV     1   --> B_1  D_3  S_3  
     e(  3 -  3) =      1.84340  eV     1   --> A_1  D_1  S_1  
     e(  4 -  4) =      4.34062  eV     1   --> A_2  D_2  S_2  
     e(  5 -  5) =      8.00865  eV     1   --> B_1  D_3  S_3  
     e(  6 -  6) =     11.52981  eV     1   --> B_2  D_4  S_4  
     e(  7 -  7) =     11.83319  eV     1   --> A_1  D_1  S_1  
     e(  8 -  8) =     12.59249  eV     1   --> B_1  D_3  S_3  
     e(  9 -  9) =     13.00276  eV     1   --> A_2  D_2  S_2  
     e( 10 - 10) =     14.01439  eV     1   --> A_1  D_1  S_1  

 **************************************************************************

 **************************************************************************

                    xk=(  -0.51923,   0.51923,  -0.00000  )

     Band symmetry, C_2v (mm2)  point group:

     e(  1 -  1) =     -3.73053  eV     1   --> A_1  D_1  S_1  
     e(  2 -  2) =      0.37849  eV     1   --> B_1  D_3  S_3  
     e(  3 -  3) =      2.14642  eV     1   --> A_1  D_1  S_1  
     e(  4 -  4) =      4.62438  eV     1   --> A_2  D_2  S_2  
     e(  5 -  5) =      8.32614  eV     1   --> B_1  D_3  S_3  
     e(  6 -  6) =     10.97882  eV     1   --> B_2  D_4  S_4  
     e(  7 -  7) =     11.28972  eV     1   --> A_1  D_1  S_1  
     e(  8 -  8) =     12.18800  eV     1   --> B_1  D_3  S_3  
     e(  9 -  9) =     12.62630  eV     1   --> A_2  D_2  S_2  
     e( 10 - 10) =     15.22132  eV     1   --> A_1  D_1  S_1  

 **************************************************************************

 **************************************************************************

                    xk=(  -0.46154,   0.46154,   0.00000  )

     Band symmetry, C_2v (mm2)  point group:

     e(  1 -  1) =     -4.15189  eV     1   --> A_1  D_1  S_1  
     e(  2 -  2) =      0.91820  eV     1   --> B_1  D_3  S_3  
     e(  3 -  3) =      2.53583  eV     1   --> A_1  D_1  S_1  
     e(  4 -  4) =      4.91167  eV     1   --> A_2  D_2  S_2  
     e(  5 -  5) =      8.62330  eV     1   --> B_1  D_3  S_3  
     e(  6 -  6) =     10.48199  eV     1   --> B_2  D_4  S_4  
     e(  7 -  7) =     10.78202  eV     1   --> A_1  D_1  S_1  
     e(  8 -  8) =     11.87932  eV     1   --> B_1  D_3  S_3  
     e(  9 -  9) =     12.35462  eV     1   --> A_2  D_2  S_2  
     e( 10 - 10) =     16.20031  eV     1   --> A_1  D_1  S_1  

 **************************************************************************

 **************************************************************************

                    xk=(  -0.40385,   0.40385,   0.00000  )

     Band symmetry, C_2v (mm2)  point group:

     e(  1 -  1) =     -4.54394  eV     1   --> A_1  D_1  S_1  
     e(  2 -  2) =      1.51336  eV     1   --> B_1  D_3  S_3  
     e(  3 -  3) =      2.99236  eV     1   --> A_1  D_1  S_1  
     e(  4 -  4) =      5.18740  eV     1   --> A_2  D_2  S_2  
     e(  5 -  5) =      8.86204  eV     1   --> B_1  D_3  S_3  
     e(  6 -  6) =     10.04094  eV     1   --> B_2  D_4  S_4  
     e(  7 -  7) =     10.32346  eV     1   --> A_1  D_1  S_1  
     e(  8 -  8) =     11.68757  eV     1   --> B_1  D_3  S_3  
     e(  9 -  9) =     12.19887  eV     1   --> A_2  D_2  S_2  
     e( 10 - 10) =     16.58594  eV     1   --> A_1  D_1  S_1  

 **************************************************************************

 **************************************************************************

                    xk=(  -0.34615,   0.34615,  -0.00000  )

     Band symmetry, C_2v (mm2)  point group:

     e(  1 -  1) =     -4.89529  eV     1   --> A_1  D_1  S_1  
     e(  2 -  2) =      2.16243  eV     1   --> B_1  D_3  S_3  
     e(  3 -  3) =      3.49980  eV     1   --> A_1  D_1  S_1  
     e(  4 -  4) =      5.43725  eV     1   --> A_2  D_2  S_2  
     e(  5 -  5) =      9.00524  eV     1   --> B_1  D_3  S_3  
     e(  6 -  6) =      9.65846  eV     1   --> B_2  D_4  S_4  
     e(  7 -  7) =      9.92063  eV     1   --> A_1  D_1  S_1  
     e(  8 -  8) =     11.61574  eV     1   --> B_1  D_3  S_3  
     e(  9 -  9) =     12.17792  eV     1   --> A_2  D_2  S_2  
     e( 10 - 10) =     15.64510  eV     1   --> B_1  D_3  S_3  

 **************************************************************************

 **************************************************************************

                    xk=(  -0.28846,   0.28846,   0.00000  )

     Band symmetry, C_2v (mm2)  point group:

     e(  1 -  1) =     -5.20088  eV     1   --> A_1  D_1  S_1  
     e(  2 -  2) =      2.85888  eV     1   --> B_1  D_3  S_3  
     e(  3 -  3) =      4.03994  eV     1   --> A_1  D_1  S_1  
     e(  4 -  4) =      5.64695  eV     1   --> A_2  D_2  S_2  
     e(  5 -  5) =      9.04244  eV     1   --> B_1  D_3  S_3  
     e(  6 -  6) =      9.33240  eV     1   --> B_2  D_4  S_4  
     e(  7 -  7) =      9.56658  eV     1   --> A_1  D_1  S_1  
     e(  8 -  8) =     11.58384  eV     1   --> B_1  D_3  S_3  
     e(  9 -  9) =     12.28782  eV     1   --> A_2  D_2  S_2  
     e( 10 - 10) =     14.60316  eV     1   --> B_1  D_3  S_3  

 **************************************************************************

 **************************************************************************

                    xk=(  -0.23077,   0.23077,   0.00000  )

     Band symmetry, C_2v (mm2)  point group:

     e(  1 -  1) =     -5.45564  eV     1   --> A_1  D_1  S_1  
     e(  2 -  2) =      3.59562  eV     1   --> B_1  D_3  S_3  
     e(  3 -  3) =      4.59167  eV     1   --> A_1  D_1  S_1  
     e(  4 -  4) =      5.80999  eV     1   --> A_2  D_2  S_2  
     e(  5 -  5) =      9.00260  eV     1   --> B_1  D_3  S_3  
     e(  6 -  6) =      9.06370  eV     1   --> B_2  D_4  S_4  
     e(  7 -  7) =      9.25975  eV     1   --> A_1  D_1  S_1  
     e(  8 -  8) =     11.37959  eV     1   --> B_1  D_3  S_3  
     e(  9 -  9) =     12.52660  eV     1   --> A_2  D_2  S_2  
     e( 10 - 10) =     13.90199  eV     1   --> B_1  D_3  S_3  

 **************************************************************************

 **************************************************************************

                    xk=(  -0.17308,   0.17308,   0.00000  )

     Band symmetry, C_2v (mm2)  point group:

     e(  1 -  1) =     -5.65624  eV     1   --> A_1  D_1  S_1  
     e(  2 -  2) =      4.35762  eV     1   --> B_1  D_3  S_3  
     e(  3 -  3) =      5.12437  eV     1   --> A_1  D_1  S_1  
     e(  4 -  4) =      5.92570  eV     1   --> A_2  D_2  S_2  
     e(  5 -  5) =      8.85478  eV     1   --> B_2  D_4  S_4  
     e(  6 -  6) =      8.92559  eV     1   --> B_1  D_3  S_3  
     e(  7 -  7) =      8.99977  eV     1   --> A_1  D_1  S_1  
     e(  8 -  8) =     10.81710  eV     1   --> B_1  D_3  S_3  
     e(  9 -  9) =     12.87949  eV     1   --> A_2  D_2  S_2  
     e( 10 - 10) =     13.67563  eV     1   --> B_1  D_3  S_3  

 **************************************************************************

 **************************************************************************

                    xk=(  -0.11538,   0.11538,   0.00000  )

     Band symmetry, C_2v (mm2)  point group:

     e(  1 -  1) =     -5.80034  eV     1   --> A_1  D_1  S_1  
     e(  2 -  2) =      5.11166  eV     1   --> B_1  D_3  S_3  
     e(  3 -  3) =      5.59252  eV     1   --> A_1  D_1  S_1  
     e(  4 -  4) =      6.00081  eV     1   --> A_2  D_2  S_2  
     e(  5 -  5) =      8.70461  eV     1   --> B_2  D_4  S_4  
     e(  6 -  6) =      8.78981  eV     1   --> A_1  D_1  S_1  
     e(  7 -  7) =      8.83054  eV     1   --> B_1  D_3  S_3  
     e(  8 -  8) =     10.06625  eV     1   --> B_1  D_3  S_3  
     e(  9 -  9) =     13.29624  eV     1   --> A_2  D_2  S_2  
     e( 10 - 10) =     13.71830  eV     1   --> B_1  D_3  S_3  

 **************************************************************************

 **************************************************************************

                    xk=(  -0.05769,   0.05769,  -0.00000  )

     Band symmetry, C_2v (mm2)  point group:

     e(  1 -  1) =     -5.88758  eV     1   --> A_1  D_1  S_1  
     e(  2 -  2) =      5.76072  eV     1   --> B_1  D_3  S_3  
     e(  3 -  3) =      5.92886  eV     1   --> A_1  D_1  S_1  
     e(  4 -  4) =      6.04162  eV     1   --> A_2  D_2  S_2  
     e(  5 -  5) =      8.61385  eV     1   --> B_2  D_4  S_4  
     e(  6 -  6) =      8.64017  eV     1   --> A_1  D_1  S_1  
     e(  7 -  7) =      8.69955  eV     1   --> B_1  D_3  S_3  
     e(  8 -  8) =      9.43686  eV     1   --> B_1  D_3  S_3  
     e(  9 -  9) =     13.67761  eV     1   --> A_2  D_2  S_2  
     e( 10 - 10) =     13.81016  eV     1   --> B_1  D_3  S_3  

 **************************************************************************

 **************************************************************************

                    xk=(   0.00000,   0.00000,   0.00000  )

     point group O_h (m-3m) 
     there are 10 classes
     the character table:

       E     8C3   3C2   6C4   6C2'  i     8S6   3s_h  6S4   6s_d 
A_1g   1.00  1.00  1.00  1.00  1.00  1.00  1.00  1.00  1.00  1.00
A_2g   1.00  1.00  1.00 -1.00 -1.00  1.00  1.00  1.00 -1.00 -1.00
E_g    2.00 -1.00  2.00  0.00  0.00  2.00 -1.00  2.00  0.00  0.00
T_1g   3.00  0.00 -1.00  1.00 -1.00  3.00  0.00 -1.00  1.00 -1.00
T_2g   3.00  0.00 -1.00 -1.00  1.00  3.00  0.00 -1.00 -1.00  1.00
A_1u   1.00  1.00  1.00  1.00  1.00 -1.00 -1.00 -1.00 -1.00 -1.00
A_2u   1.00  1.00  1.00 -1.00 -1.00 -1.00 -1.00 -1.00  1.00  1.00
E_u    2.00 -1.00  2.00  0.00  0.00 -2.00  1.00 -2.00  0.00  0.00
T_1u   3.00  0.00 -1.00  1.00 -1.00 -3.00  0.00  1.00 -1.00  1.00
T_2u   3.00  0.00 -1.00 -1.00  1.00 -3.00  0.00  1.00  1.00 -1.00

     the symmetry operations in each class and the name of the first element:

     E        1
                                                                 
     8C3     17   19   20   18   24   21   22   23
                                                                 
     3C2      2    4    3
                                                                 
     6C4      7    8   15   16   12   11
                                                                 
     6C2'     5    6   14   13   10    9
                                                                 
     i       25
                                                                 
     8S6     41   43   44   42   48   45   46   47
                                                                 
     3s_h    26   28   27
                                                                 
     6S4     31   32   39   40   36   35
                                                                 
     6s_d    29   30   38   37   34   33
                                                                 

     Band symmetry, O_h (m-3m)  point group:

     e(  1 -  1) =     -5.91673  eV     1   --> A_1g G_1   G_1+
     e(  2 -  4) =      6.05452  eV     3   --> T_2g G_25' G_5+
     e(  5 -  7) =      8.58394  eV     3   --> T_1u G_15  G_4-
     e(  8 -  8) =      9.21591  eV     1   --> A_2u G_2'  G_2-
     e(  9 -  9) =     13.72463  eV     1   --> A_1g G_1   G_1+
     e( 10 - 10) =     13.84954  eV     1   -->   ?

 **************************************************************************
 
     BANDS        :      0.62s CPU      0.71s WALL

 
   This run was terminated on:  14:28:11  17Oct2022            

=------------------------------------------------------------------------------=
   JOB DONE.
=------------------------------------------------------------------------------=
