
     Program PWSCF v.7.1 starts on 17Oct2022 at 14:28: 8 

     This program is part of the open-source Quantum ESPRESSO suite
     for quantum simulation of materials; please cite
         "P. Giannozzi et al., J. Phys.:Condens. Matter 21 395502 (2009);
         "P. Giannozzi et al., J. Phys.:Condens. Matter 29 465901 (2017);
         "P. Giannozzi et al., J. Chem. Phys. 152 154105 (2020);
          URL http://www.quantum-espresso.org", 
     in publications or presentations arising from this work. More details at
     http://www.quantum-espresso.org/quote

     Parallel version (MPI), running on     1 processors

     MPI processes distributed on     1 nodes
     548 MiB available memory on the printing compute node when the environment starts
 
     Reading input from bands.pwi

     Current dimensions of program PWSCF are:
     Max number of different atomic species (ntypx) = 10
     Max number of k-points (npk) =  40000
     Max angular momentum in pseudopotentials (lmaxx) =  4

     Atomic positions and unit cell read from directory:
     ./out/si.save/
     Atomic positions from file used, from input discarded
 
 
     Subspace diagonalization in iterative solution of the eigenvalue problem:
     a serial algorithm will be used

 
     G-vector sticks info
     --------------------
     sticks:   dense  smooth     PW     G-vecs:    dense   smooth      PW
     Sum         295     295     91                 3287     3287     609
 
     Using Slab Decomposition
 


     bravais-lattice index     =            2
     lattice parameter (alat)  =      10.2622  a.u.
     unit-cell volume          =     270.1851 (a.u.)^3
     number of atoms/cell      =            2
     number of atomic types    =            1
     number of electrons       =         8.00
     number of Kohn-Sham states=           10
     kinetic-energy cutoff     =      20.0000  Ry
     charge density cutoff     =      80.0000  Ry
     Exchange-correlation= SLA  PW   NOGX NOGC
                           (   1   4   0   0   0   0   0)

     celldm(1)=  10.262200  celldm(2)=   0.000000  celldm(3)=   0.000000
     celldm(4)=   0.000000  celldm(5)=   0.000000  celldm(6)=   0.000000

     crystal axes: (cart. coord. in units of alat)
               a(1) = (  -0.500000   0.000000   0.500000 )  
               a(2) = (   0.000000   0.500000   0.500000 )  
               a(3) = (  -0.500000   0.500000   0.000000 )  

     reciprocal axes: (cart. coord. in units 2 pi/alat)
               b(1) = ( -1.000000 -1.000000  1.000000 )  
               b(2) = (  1.000000  1.000000  1.000000 )  
               b(3) = ( -1.000000  1.000000 -1.000000 )  


     PseudoPot. # 1 for Si read from file:
     ../../../files/pseudo/Si.upf
     MD5 check sum: 9e2d726316af3d4752eea8ab0afbb951
     Pseudo is Norm-conserving + core correction, Zval =  4.0
     Generated using ONCVPSP code by D. R. Hamann
     Using radial grid of 1510 points,  6 beta functions with: 
                l(1) =   0
                l(2) =   0
                l(3) =   1
                l(4) =   1
                l(5) =   2
                l(6) =   2

     atomic species   valence    mass     pseudopotential
        Si             4.00    28.08500     Si( 1.00)

     48 Sym. Ops., with inversion, found (24 have fractional translation)


                                    s                        frac. trans.

      isym =  1     identity                                     

 cryst.   s( 1) = (     1          0          0      )
                  (     0          1          0      )
                  (     0          0          1      )

 cart.    s( 1) = (  1.0000000  0.0000000  0.0000000 )
                  (  0.0000000  1.0000000  0.0000000 )
                  (  0.0000000  0.0000000  1.0000000 )


      isym =  2     180 deg rotation - cart. axis [0,0,1]        

 cryst.   s( 2) = (     0          1         -1      )
                  (     1          0         -1      )
                  (     0          0         -1      )

 cart.    s( 2) = ( -1.0000000  0.0000000  0.0000000 )
                  (  0.0000000 -1.0000000  0.0000000 )
                  (  0.0000000  0.0000000  1.0000000 )


      isym =  3     180 deg rotation - cart. axis [0,1,0]        

 cryst.   s( 3) = (    -1          0          0      )
                  (    -1          0          1      )
                  (    -1          1          0      )

 cart.    s( 3) = ( -1.0000000  0.0000000  0.0000000 )
                  (  0.0000000  1.0000000  0.0000000 )
                  (  0.0000000  0.0000000 -1.0000000 )


      isym =  4     180 deg rotation - cart. axis [1,0,0]        

 cryst.   s( 4) = (     0         -1          1      )
                  (     0         -1          0      )
                  (     1         -1          0      )

 cart.    s( 4) = (  1.0000000  0.0000000  0.0000000 )
                  (  0.0000000 -1.0000000  0.0000000 )
                  (  0.0000000  0.0000000 -1.0000000 )


      isym =  5     180 deg rotation - cart. axis [1,1,0]        

 cryst.   s( 5) = (     0         -1          0      )    f =( -0.2500000 )
                  (    -1          0          0      )       ( -0.2500000 )
                  (     0          0         -1      )       ( -0.2500000 )

 cart.    s( 5) = (  0.0000000  1.0000000  0.0000000 )    f =(  0.2500000 )
                  (  1.0000000  0.0000000  0.0000000 )       ( -0.2500000 )
                  (  0.0000000  0.0000000 -1.0000000 )       ( -0.2500000 )


      isym =  6     180 deg rotation - cart. axis [1,-1,0]       

 cryst.   s( 6) = (    -1          0          1      )    f =( -0.2500000 )
                  (     0         -1          1      )       ( -0.2500000 )
                  (     0          0          1      )       ( -0.2500000 )

 cart.    s( 6) = (  0.0000000 -1.0000000  0.0000000 )    f =(  0.2500000 )
                  ( -1.0000000  0.0000000  0.0000000 )       ( -0.2500000 )
                  (  0.0000000  0.0000000 -1.0000000 )       ( -0.2500000 )


      isym =  7      90 deg rotation - cart. axis [0,0,-1]       

 cryst.   s( 7) = (     0          1          0      )    f =( -0.2500000 )
                  (     0          1         -1      )       ( -0.2500000 )
                  (    -1          1          0      )       ( -0.2500000 )

 cart.    s( 7) = (  0.0000000  1.0000000  0.0000000 )    f =(  0.2500000 )
                  ( -1.0000000  0.0000000  0.0000000 )       ( -0.2500000 )
                  (  0.0000000  0.0000000  1.0000000 )       ( -0.2500000 )


      isym =  8      90 deg rotation - cart. axis [0,0,1]        

 cryst.   s( 8) = (     1          0         -1      )    f =( -0.2500000 )
                  (     1          0          0      )       ( -0.2500000 )
                  (     1         -1          0      )       ( -0.2500000 )

 cart.    s( 8) = (  0.0000000 -1.0000000  0.0000000 )    f =(  0.2500000 )
                  (  1.0000000  0.0000000  0.0000000 )       ( -0.2500000 )
                  (  0.0000000  0.0000000  1.0000000 )       ( -0.2500000 )


      isym =  9     180 deg rotation - cart. axis [1,0,1]        

 cryst.   s( 9) = (    -1          0          0      )    f =( -0.2500000 )
                  (     0          0         -1      )       ( -0.2500000 )
                  (     0         -1          0      )       ( -0.2500000 )

 cart.    s( 9) = (  0.0000000  0.0000000  1.0000000 )    f =(  0.2500000 )
                  (  0.0000000 -1.0000000  0.0000000 )       ( -0.2500000 )
                  (  1.0000000  0.0000000  0.0000000 )       ( -0.2500000 )


      isym = 10     180 deg rotation - cart. axis [-1,0,1]       

 cryst.   s(10) = (     1          0          0      )    f =( -0.2500000 )
                  (     1         -1          0      )       ( -0.2500000 )
                  (     1          0         -1      )       ( -0.2500000 )

 cart.    s(10) = (  0.0000000  0.0000000 -1.0000000 )    f =(  0.2500000 )
                  (  0.0000000 -1.0000000  0.0000000 )       ( -0.2500000 )
                  ( -1.0000000  0.0000000  0.0000000 )       ( -0.2500000 )


      isym = 11      90 deg rotation - cart. axis [0,1,0]        

 cryst.   s(11) = (     0          1         -1      )    f =( -0.2500000 )
                  (    -1          1          0      )       ( -0.2500000 )
                  (     0          1          0      )       ( -0.2500000 )

 cart.    s(11) = (  0.0000000  0.0000000  1.0000000 )    f =(  0.2500000 )
                  (  0.0000000  1.0000000  0.0000000 )       ( -0.2500000 )
                  ( -1.0000000  0.0000000  0.0000000 )       ( -0.2500000 )


      isym = 12      90 deg rotation - cart. axis [0,-1,0]       

 cryst.   s(12) = (     0         -1          1      )    f =( -0.2500000 )
                  (     0          0          1      )       ( -0.2500000 )
                  (    -1          0          1      )       ( -0.2500000 )

 cart.    s(12) = (  0.0000000  0.0000000 -1.0000000 )    f =(  0.2500000 )
                  (  0.0000000  1.0000000  0.0000000 )       ( -0.2500000 )
                  (  1.0000000  0.0000000  0.0000000 )       ( -0.2500000 )


      isym = 13     180 deg rotation - cart. axis [0,1,1]        

 cryst.   s(13) = (    -1          1          0      )    f =( -0.2500000 )
                  (     0          1          0      )       ( -0.2500000 )
                  (     0          1         -1      )       ( -0.2500000 )

 cart.    s(13) = ( -1.0000000  0.0000000  0.0000000 )    f =(  0.2500000 )
                  (  0.0000000  0.0000000  1.0000000 )       ( -0.2500000 )
                  (  0.0000000  1.0000000  0.0000000 )       ( -0.2500000 )


      isym = 14     180 deg rotation - cart. axis [0,1,-1]       

 cryst.   s(14) = (     0          0         -1      )    f =( -0.2500000 )
                  (     0         -1          0      )       ( -0.2500000 )
                  (    -1          0          0      )       ( -0.2500000 )

 cart.    s(14) = ( -1.0000000  0.0000000  0.0000000 )    f =(  0.2500000 )
                  (  0.0000000  0.0000000 -1.0000000 )       ( -0.2500000 )
                  (  0.0000000 -1.0000000  0.0000000 )       ( -0.2500000 )


      isym = 15      90 deg rotation - cart. axis [-1,0,0]       

 cryst.   s(15) = (     0          0          1      )    f =( -0.2500000 )
                  (    -1          0          1      )       ( -0.2500000 )
                  (     0         -1          1      )       ( -0.2500000 )

 cart.    s(15) = (  1.0000000  0.0000000  0.0000000 )    f =(  0.2500000 )
                  (  0.0000000  0.0000000  1.0000000 )       ( -0.2500000 )
                  (  0.0000000 -1.0000000  0.0000000 )       ( -0.2500000 )


      isym = 16      90 deg rotation - cart. axis [1,0,0]        

 cryst.   s(16) = (     1         -1          0      )    f =( -0.2500000 )
                  (     1          0         -1      )       ( -0.2500000 )
                  (     1          0          0      )       ( -0.2500000 )

 cart.    s(16) = (  1.0000000  0.0000000  0.0000000 )    f =(  0.2500000 )
                  (  0.0000000  0.0000000 -1.0000000 )       ( -0.2500000 )
                  (  0.0000000  1.0000000  0.0000000 )       ( -0.2500000 )


      isym = 17     120 deg rotation - cart. axis [-1,-1,-1]     

 cryst.   s(17) = (    -1          0          1      )
                  (    -1          1          0      )
                  (    -1          0          0      )

 cart.    s(17) = (  0.0000000  1.0000000  0.0000000 )
                  (  0.0000000  0.0000000  1.0000000 )
                  (  1.0000000  0.0000000  0.0000000 )


      isym = 18     120 deg rotation - cart. axis [-1,1,1]       

 cryst.   s(18) = (     0          1          0      )
                  (     0          0          1      )
                  (     1          0          0      )

 cart.    s(18) = (  0.0000000 -1.0000000  0.0000000 )
                  (  0.0000000  0.0000000  1.0000000 )
                  ( -1.0000000  0.0000000  0.0000000 )


      isym = 19     120 deg rotation - cart. axis [1,1,-1]       

 cryst.   s(19) = (     1          0         -1      )
                  (     0          0         -1      )
                  (     0          1         -1      )

 cart.    s(19) = (  0.0000000  1.0000000  0.0000000 )
                  (  0.0000000  0.0000000 -1.0000000 )
                  ( -1.0000000  0.0000000  0.0000000 )


      isym = 20     120 deg rotation - cart. axis [1,-1,1]       

 cryst.   s(20) = (     0         -1          0      )
                  (     1         -1          0      )
                  (     0         -1          1      )

 cart.    s(20) = (  0.0000000 -1.0000000  0.0000000 )
                  (  0.0000000  0.0000000 -1.0000000 )
                  (  1.0000000  0.0000000  0.0000000 )


      isym = 21     120 deg rotation - cart. axis [1,1,1]        

 cryst.   s(21) = (     0          0         -1      )
                  (     0          1         -1      )
                  (     1          0         -1      )

 cart.    s(21) = (  0.0000000  0.0000000  1.0000000 )
                  (  1.0000000  0.0000000  0.0000000 )
                  (  0.0000000  1.0000000  0.0000000 )


      isym = 22     120 deg rotation - cart. axis [-1,1,-1]      

 cryst.   s(22) = (    -1          1          0      )
                  (    -1          0          0      )
                  (    -1          0          1      )

 cart.    s(22) = (  0.0000000  0.0000000  1.0000000 )
                  ( -1.0000000  0.0000000  0.0000000 )
                  (  0.0000000 -1.0000000  0.0000000 )


      isym = 23     120 deg rotation - cart. axis [1,-1,-1]      

 cryst.   s(23) = (     0          0          1      )
                  (     1          0          0      )
                  (     0          1          0      )

 cart.    s(23) = (  0.0000000  0.0000000 -1.0000000 )
                  ( -1.0000000  0.0000000  0.0000000 )
                  (  0.0000000  1.0000000  0.0000000 )


      isym = 24     120 deg rotation - cart. axis [-1,-1,1]      

 cryst.   s(24) = (     1         -1          0      )
                  (     0         -1          1      )
                  (     0         -1          0      )

 cart.    s(24) = (  0.0000000  0.0000000 -1.0000000 )
                  (  1.0000000  0.0000000  0.0000000 )
                  (  0.0000000 -1.0000000  0.0000000 )


      isym = 25     inversion                                    

 cryst.   s(25) = (    -1          0          0      )    f =( -0.2500000 )
                  (     0         -1          0      )       ( -0.2500000 )
                  (     0          0         -1      )       ( -0.2500000 )

 cart.    s(25) = ( -1.0000000  0.0000000  0.0000000 )    f =(  0.2500000 )
                  (  0.0000000 -1.0000000  0.0000000 )       ( -0.2500000 )
                  (  0.0000000  0.0000000 -1.0000000 )       ( -0.2500000 )


      isym = 26     inv. 180 deg rotation - cart. axis [0,0,1]   

 cryst.   s(26) = (     0         -1          1      )    f =( -0.2500000 )
                  (    -1          0          1      )       ( -0.2500000 )
                  (     0          0          1      )       ( -0.2500000 )

 cart.    s(26) = (  1.0000000  0.0000000  0.0000000 )    f =(  0.2500000 )
                  (  0.0000000  1.0000000  0.0000000 )       ( -0.2500000 )
                  (  0.0000000  0.0000000 -1.0000000 )       ( -0.2500000 )


      isym = 27     inv. 180 deg rotation - cart. axis [0,1,0]   

 cryst.   s(27) = (     1          0          0      )    f =( -0.2500000 )
                  (     1          0         -1      )       ( -0.2500000 )
                  (     1         -1          0      )       ( -0.2500000 )

 cart.    s(27) = (  1.0000000  0.0000000  0.0000000 )    f =(  0.2500000 )
                  (  0.0000000 -1.0000000  0.0000000 )       ( -0.2500000 )
                  (  0.0000000  0.0000000  1.0000000 )       ( -0.2500000 )


      isym = 28     inv. 180 deg rotation - cart. axis [1,0,0]   

 cryst.   s(28) = (     0          1         -1      )    f =( -0.2500000 )
                  (     0          1          0      )       ( -0.2500000 )
                  (    -1          1          0      )       ( -0.2500000 )

 cart.    s(28) = ( -1.0000000  0.0000000  0.0000000 )    f =(  0.2500000 )
                  (  0.0000000  1.0000000  0.0000000 )       ( -0.2500000 )
                  (  0.0000000  0.0000000  1.0000000 )       ( -0.2500000 )


      isym = 29     inv. 180 deg rotation - cart. axis [1,1,0]   

 cryst.   s(29) = (     0          1          0      )
                  (     1          0          0      )
                  (     0          0          1      )

 cart.    s(29) = (  0.0000000 -1.0000000  0.0000000 )
                  ( -1.0000000  0.0000000  0.0000000 )
                  (  0.0000000  0.0000000  1.0000000 )


      isym = 30     inv. 180 deg rotation - cart. axis [1,-1,0]  

 cryst.   s(30) = (     1          0         -1      )
                  (     0          1         -1      )
                  (     0          0         -1      )

 cart.    s(30) = (  0.0000000  1.0000000  0.0000000 )
                  (  1.0000000  0.0000000  0.0000000 )
                  (  0.0000000  0.0000000  1.0000000 )


      isym = 31     inv.  90 deg rotation - cart. axis [0,0,-1]  

 cryst.   s(31) = (     0         -1          0      )
                  (     0         -1          1      )
                  (     1         -1          0      )

 cart.    s(31) = (  0.0000000 -1.0000000  0.0000000 )
                  (  1.0000000  0.0000000  0.0000000 )
                  (  0.0000000  0.0000000 -1.0000000 )


      isym = 32     inv.  90 deg rotation - cart. axis [0,0,1]   

 cryst.   s(32) = (    -1          0          1      )
                  (    -1          0          0      )
                  (    -1          1          0      )

 cart.    s(32) = (  0.0000000  1.0000000  0.0000000 )
                  ( -1.0000000  0.0000000  0.0000000 )
                  (  0.0000000  0.0000000 -1.0000000 )


      isym = 33     inv. 180 deg rotation - cart. axis [1,0,1]   

 cryst.   s(33) = (     1          0          0      )
                  (     0          0          1      )
                  (     0          1          0      )

 cart.    s(33) = (  0.0000000  0.0000000 -1.0000000 )
                  (  0.0000000  1.0000000  0.0000000 )
                  ( -1.0000000  0.0000000  0.0000000 )


      isym = 34     inv. 180 deg rotation - cart. axis [-1,0,1]  

 cryst.   s(34) = (    -1          0          0      )
                  (    -1          1          0      )
                  (    -1          0          1      )

 cart.    s(34) = (  0.0000000  0.0000000  1.0000000 )
                  (  0.0000000  1.0000000  0.0000000 )
                  (  1.0000000  0.0000000  0.0000000 )


      isym = 35     inv.  90 deg rotation - cart. axis [0,1,0]   

 cryst.   s(35) = (     0         -1          1      )
                  (     1         -1          0      )
                  (     0         -1          0      )

 cart.    s(35) = (  0.0000000  0.0000000 -1.0000000 )
                  (  0.0000000 -1.0000000  0.0000000 )
                  (  1.0000000  0.0000000  0.0000000 )


      isym = 36     inv.  90 deg rotation - cart. axis [0,-1,0]  

 cryst.   s(36) = (     0          1         -1      )
                  (     0          0         -1      )
                  (     1          0         -1      )

 cart.    s(36) = (  0.0000000  0.0000000  1.0000000 )
                  (  0.0000000 -1.0000000  0.0000000 )
                  ( -1.0000000  0.0000000  0.0000000 )


      isym = 37     inv. 180 deg rotation - cart. axis [0,1,1]   

 cryst.   s(37) = (     1         -1          0      )
                  (     0         -1          0      )
                  (     0         -1          1      )

 cart.    s(37) = (  1.0000000  0.0000000  0.0000000 )
                  (  0.0000000  0.0000000 -1.0000000 )
                  (  0.0000000 -1.0000000  0.0000000 )


      isym = 38     inv. 180 deg rotation - cart. axis [0,1,-1]  

 cryst.   s(38) = (     0          0          1      )
                  (     0          1          0      )
                  (     1          0          0      )

 cart.    s(38) = (  1.0000000  0.0000000  0.0000000 )
                  (  0.0000000  0.0000000  1.0000000 )
                  (  0.0000000  1.0000000  0.0000000 )


      isym = 39     inv.  90 deg rotation - cart. axis [-1,0,0]  

 cryst.   s(39) = (     0          0         -1      )
                  (     1          0         -1      )
                  (     0          1         -1      )

 cart.    s(39) = ( -1.0000000  0.0000000  0.0000000 )
                  (  0.0000000  0.0000000 -1.0000000 )
                  (  0.0000000  1.0000000  0.0000000 )


      isym = 40     inv.  90 deg rotation - cart. axis [1,0,0]   

 cryst.   s(40) = (    -1          1          0      )
                  (    -1          0          1      )
                  (    -1          0          0      )

 cart.    s(40) = ( -1.0000000  0.0000000  0.0000000 )
                  (  0.0000000  0.0000000  1.0000000 )
                  (  0.0000000 -1.0000000  0.0000000 )


      isym = 41     inv. 120 deg rotation - cart. axis [-1,-1,-1]

 cryst.   s(41) = (     1          0         -1      )    f =( -0.2500000 )
                  (     1         -1          0      )       ( -0.2500000 )
                  (     1          0          0      )       ( -0.2500000 )

 cart.    s(41) = (  0.0000000 -1.0000000  0.0000000 )    f =(  0.2500000 )
                  (  0.0000000  0.0000000 -1.0000000 )       ( -0.2500000 )
                  ( -1.0000000  0.0000000  0.0000000 )       ( -0.2500000 )


      isym = 42     inv. 120 deg rotation - cart. axis [-1,1,1]  

 cryst.   s(42) = (     0         -1          0      )    f =( -0.2500000 )
                  (     0          0         -1      )       ( -0.2500000 )
                  (    -1          0          0      )       ( -0.2500000 )

 cart.    s(42) = (  0.0000000  1.0000000  0.0000000 )    f =(  0.2500000 )
                  (  0.0000000  0.0000000 -1.0000000 )       ( -0.2500000 )
                  (  1.0000000  0.0000000  0.0000000 )       ( -0.2500000 )


      isym = 43     inv. 120 deg rotation - cart. axis [1,1,-1]  

 cryst.   s(43) = (    -1          0          1      )    f =( -0.2500000 )
                  (     0          0          1      )       ( -0.2500000 )
                  (     0         -1          1      )       ( -0.2500000 )

 cart.    s(43) = (  0.0000000 -1.0000000  0.0000000 )    f =(  0.2500000 )
                  (  0.0000000  0.0000000  1.0000000 )       ( -0.2500000 )
                  (  1.0000000  0.0000000  0.0000000 )       ( -0.2500000 )


      isym = 44     inv. 120 deg rotation - cart. axis [1,-1,1]  

 cryst.   s(44) = (     0          1          0      )    f =( -0.2500000 )
                  (    -1          1          0      )       ( -0.2500000 )
                  (     0          1         -1      )       ( -0.2500000 )

 cart.    s(44) = (  0.0000000  1.0000000  0.0000000 )    f =(  0.2500000 )
                  (  0.0000000  0.0000000  1.0000000 )       ( -0.2500000 )
                  ( -1.0000000  0.0000000  0.0000000 )       ( -0.2500000 )


      isym = 45     inv. 120 deg rotation - cart. axis [1,1,1]   

 cryst.   s(45) = (     0          0          1      )    f =( -0.2500000 )
                  (     0         -1          1      )       ( -0.2500000 )
                  (    -1          0          1      )       ( -0.2500000 )

 cart.    s(45) = (  0.0000000  0.0000000 -1.0000000 )    f =(  0.2500000 )
                  ( -1.0000000  0.0000000  0.0000000 )       ( -0.2500000 )
                  (  0.0000000 -1.0000000  0.0000000 )       ( -0.2500000 )


      isym = 46     inv. 120 deg rotation - cart. axis [-1,1,-1] 

 cryst.   s(46) = (     1         -1          0      )    f =( -0.2500000 )
                  (     1          0          0      )       ( -0.2500000 )
                  (     1          0         -1      )       ( -0.2500000 )

 cart.    s(46) = (  0.0000000  0.0000000 -1.0000000 )    f =(  0.2500000 )
                  (  1.0000000  0.0000000  0.0000000 )       ( -0.2500000 )
                  (  0.0000000  1.0000000  0.0000000 )       ( -0.2500000 )


      isym = 47     inv. 120 deg rotation - cart. axis [1,-1,-1] 

 cryst.   s(47) = (     0          0         -1      )    f =( -0.2500000 )
                  (    -1          0          0      )       ( -0.2500000 )
                  (     0         -1          0      )       ( -0.2500000 )

 cart.    s(47) = (  0.0000000  0.0000000  1.0000000 )    f =(  0.2500000 )
                  (  1.0000000  0.0000000  0.0000000 )       ( -0.2500000 )
                  (  0.0000000 -1.0000000  0.0000000 )       ( -0.2500000 )


      isym = 48     inv. 120 deg rotation - cart. axis [-1,-1,1] 

 cryst.   s(48) = (    -1          1          0      )    f =( -0.2500000 )
                  (     0          1         -1      )       ( -0.2500000 )
                  (     0          1          0      )       ( -0.2500000 )

 cart.    s(48) = (  0.0000000  0.0000000  1.0000000 )    f =(  0.2500000 )
                  ( -1.0000000  0.0000000  0.0000000 )       ( -0.2500000 )
                  (  0.0000000  1.0000000  0.0000000 )       ( -0.2500000 )


     point group O_h (m-3m) 
     there are 10 classes
     the character table:

       E     8C3   3C2   6C4   6C2'  i     8S6   3s_h  6S4   6s_d 
A_1g   1.00  1.00  1.00  1.00  1.00  1.00  1.00  1.00  1.00  1.00
A_2g   1.00  1.00  1.00 -1.00 -1.00  1.00  1.00  1.00 -1.00 -1.00
E_g    2.00 -1.00  2.00  0.00  0.00  2.00 -1.00  2.00  0.00  0.00
T_1g   3.00  0.00 -1.00  1.00 -1.00  3.00  0.00 -1.00  1.00 -1.00
T_2g   3.00  0.00 -1.00 -1.00  1.00  3.00  0.00 -1.00 -1.00  1.00
A_1u   1.00  1.00  1.00  1.00  1.00 -1.00 -1.00 -1.00 -1.00 -1.00
A_2u   1.00  1.00  1.00 -1.00 -1.00 -1.00 -1.00 -1.00  1.00  1.00
E_u    2.00 -1.00  2.00  0.00  0.00 -2.00  1.00 -2.00  0.00  0.00
T_1u   3.00  0.00 -1.00  1.00 -1.00 -3.00  0.00  1.00 -1.00  1.00
T_2u   3.00  0.00 -1.00 -1.00  1.00 -3.00  0.00  1.00  1.00 -1.00

     the symmetry operations in each class and the name of the first element:

     E        1
          identity                                               
     8C3     17   19   20   18   24   21   22   23
          120 deg rotation - cart. axis [-1,-1,-1]               
     3C2      2    4    3
          180 deg rotation - cart. axis [0,0,1]                  
     6C4      7    8   15   16   12   11
           90 deg rotation - cart. axis [0,0,-1]                 
     6C2'     5    6   14   13   10    9
          180 deg rotation - cart. axis [1,1,0]                  
     i       25
          inversion                                              
     8S6     41   43   44   42   48   45   46   47
          inv. 120 deg rotation - cart. axis [-1,-1,-1]          
     3s_h    26   28   27
          inv. 180 deg rotation - cart. axis [0,0,1]             
     6S4     31   32   39   40   36   35
          inv.  90 deg rotation - cart. axis [0,0,-1]            
     6s_d    29   30   38   37   34   33
          inv. 180 deg rotation - cart. axis [1,1,0]             

   Cartesian axes

     site n.     atom                  positions (alat units)
         1           Si  tau(   1) = (   0.0000000   0.0000000   0.0000000  )
         2           Si  tau(   2) = (  -0.2500000   0.2500000   0.2500000  )

   Crystallographic axes

     site n.     atom                  positions (cryst. coord.)
         1           Si  tau(   1) = (  0.0000000  0.0000000  0.0000000  )
         2           Si  tau(   2) = (  0.2500000  0.2500000  0.2500000  )

     number of k points=    43
                       cart. coord. in units 2pi/alat
        k(    1) = (  -0.5000000   0.5000000   0.5000000), wk =   0.0465116
        k(    2) = (  -0.4444444   0.4444444   0.4444444), wk =   0.0465116
        k(    3) = (  -0.3888889   0.3888889   0.3888889), wk =   0.0465116
        k(    4) = (  -0.3333333   0.3333333   0.3333333), wk =   0.0465116
        k(    5) = (  -0.2777778   0.2777778   0.2777778), wk =   0.0465116
        k(    6) = (  -0.2222222   0.2222222   0.2222222), wk =   0.0465116
        k(    7) = (  -0.1666667   0.1666667   0.1666667), wk =   0.0465116
        k(    8) = (  -0.1111111   0.1111111   0.1111111), wk =   0.0465116
        k(    9) = (  -0.0555556   0.0555556   0.0555556), wk =   0.0465116
        k(   10) = (   0.0000000   0.0000000   0.0000000), wk =   0.0465116
        k(   11) = (  -0.0909091   0.0000000   0.0000000), wk =   0.0465116
        k(   12) = (  -0.1818182   0.0000000   0.0000000), wk =   0.0465116
        k(   13) = (  -0.2727273   0.0000000   0.0000000), wk =   0.0465116
        k(   14) = (  -0.3636364   0.0000000   0.0000000), wk =   0.0465116
        k(   15) = (  -0.4545455   0.0000000   0.0000000), wk =   0.0465116
        k(   16) = (  -0.5454545   0.0000000   0.0000000), wk =   0.0465116
        k(   17) = (  -0.6363636   0.0000000   0.0000000), wk =   0.0465116
        k(   18) = (  -0.7272727   0.0000000   0.0000000), wk =   0.0465116
        k(   19) = (  -0.8181818   0.0000000   0.0000000), wk =   0.0465116
        k(   20) = (  -0.9090909   0.0000000   0.0000000), wk =   0.0465116
        k(   21) = (  -1.0000000   0.0000000   0.0000000), wk =   0.0465116
        k(   22) = (  -0.9722222   0.0833333  -0.0000000), wk =   0.0465116
        k(   23) = (  -0.9444444   0.1666667  -0.0000000), wk =   0.0465116
        k(   24) = (  -0.9166667   0.2500000   0.0000000), wk =   0.0465116
        k(   25) = (  -0.8888889   0.3333333  -0.0000000), wk =   0.0465116
        k(   26) = (  -0.8611111   0.4166667   0.0000000), wk =   0.0465116
        k(   27) = (  -0.8333333   0.5000000   0.0000000), wk =   0.0465116
        k(   28) = (  -0.8055556   0.5833333   0.0000000), wk =   0.0465116
        k(   29) = (  -0.7777778   0.6666667   0.0000000), wk =   0.0465116
        k(   30) = (  -0.7500000   0.7500000   0.0000000), wk =   0.0465116
        k(   31) = (  -0.6923077   0.6923077   0.0000000), wk =   0.0465116
        k(   32) = (  -0.6346154   0.6346154   0.0000000), wk =   0.0465116
        k(   33) = (  -0.5769231   0.5769231   0.0000000), wk =   0.0465116
        k(   34) = (  -0.5192308   0.5192308  -0.0000000), wk =   0.0465116
        k(   35) = (  -0.4615385   0.4615385   0.0000000), wk =   0.0465116
        k(   36) = (  -0.4038462   0.4038462   0.0000000), wk =   0.0465116
        k(   37) = (  -0.3461538   0.3461538  -0.0000000), wk =   0.0465116
        k(   38) = (  -0.2884615   0.2884615   0.0000000), wk =   0.0465116
        k(   39) = (  -0.2307692   0.2307692   0.0000000), wk =   0.0465116
        k(   40) = (  -0.1730769   0.1730769   0.0000000), wk =   0.0465116
        k(   41) = (  -0.1153846   0.1153846   0.0000000), wk =   0.0465116
        k(   42) = (  -0.0576923   0.0576923  -0.0000000), wk =   0.0465116
        k(   43) = (   0.0000000   0.0000000   0.0000000), wk =   0.0465116

                       cryst. coord.
        k(    1) = (   0.5000000   0.5000000   0.5000000), wk =   0.0465116
        k(    2) = (   0.4444444   0.4444444   0.4444444), wk =   0.0465116
        k(    3) = (   0.3888889   0.3888889   0.3888889), wk =   0.0465116
        k(    4) = (   0.3333333   0.3333333   0.3333333), wk =   0.0465116
        k(    5) = (   0.2777778   0.2777778   0.2777778), wk =   0.0465116
        k(    6) = (   0.2222222   0.2222222   0.2222222), wk =   0.0465116
        k(    7) = (   0.1666667   0.1666667   0.1666667), wk =   0.0465116
        k(    8) = (   0.1111111   0.1111111   0.1111111), wk =   0.0465116
        k(    9) = (   0.0555556   0.0555556   0.0555556), wk =   0.0465116
        k(   10) = (   0.0000000   0.0000000   0.0000000), wk =   0.0465116
        k(   11) = (   0.0454545   0.0000000   0.0454545), wk =   0.0465116
        k(   12) = (   0.0909091   0.0000000   0.0909091), wk =   0.0465116
        k(   13) = (   0.1363636   0.0000000   0.1363636), wk =   0.0465116
        k(   14) = (   0.1818182   0.0000000   0.1818182), wk =   0.0465116
        k(   15) = (   0.2272727   0.0000000   0.2272727), wk =   0.0465116
        k(   16) = (   0.2727273   0.0000000   0.2727273), wk =   0.0465116
        k(   17) = (   0.3181818   0.0000000   0.3181818), wk =   0.0465116
        k(   18) = (   0.3636364   0.0000000   0.3636364), wk =   0.0465116
        k(   19) = (   0.4090909   0.0000000   0.4090909), wk =   0.0465116
        k(   20) = (   0.4545455   0.0000000   0.4545455), wk =   0.0465116
        k(   21) = (   0.5000000   0.0000000   0.5000000), wk =   0.0465116
        k(   22) = (   0.4861111   0.0416667   0.5277778), wk =   0.0465116
        k(   23) = (   0.4722222   0.0833333   0.5555556), wk =   0.0465116
        k(   24) = (   0.4583333   0.1250000   0.5833333), wk =   0.0465116
        k(   25) = (   0.4444444   0.1666667   0.6111111), wk =   0.0465116
        k(   26) = (   0.4305556   0.2083333   0.6388889), wk =   0.0465116
        k(   27) = (   0.4166667   0.2500000   0.6666667), wk =   0.0465116
        k(   28) = (   0.4027778   0.2916667   0.6944444), wk =   0.0465116
        k(   29) = (   0.3888889   0.3333333   0.7222222), wk =   0.0465116
        k(   30) = (   0.3750000   0.3750000   0.7500000), wk =   0.0465116
        k(   31) = (   0.3461538   0.3461538   0.6923077), wk =   0.0465116
        k(   32) = (   0.3173077   0.3173077   0.6346154), wk =   0.0465116
        k(   33) = (   0.2884615   0.2884615   0.5769231), wk =   0.0465116
        k(   34) = (   0.2596154   0.2596154   0.5192308), wk =   0.0465116
        k(   35) = (   0.2307692   0.2307692   0.4615385), wk =   0.0465116
        k(   36) = (   0.2019231   0.2019231   0.4038462), wk =   0.0465116
        k(   37) = (   0.1730769   0.1730769   0.3461538), wk =   0.0465116
        k(   38) = (   0.1442308   0.1442308   0.2884615), wk =   0.0465116
        k(   39) = (   0.1153846   0.1153846   0.2307692), wk =   0.0465116
        k(   40) = (   0.0865385   0.0865385   0.1730769), wk =   0.0465116
        k(   41) = (   0.0576923   0.0576923   0.1153846), wk =   0.0465116
        k(   42) = (   0.0288462   0.0288462   0.0576923), wk =   0.0465116
        k(   43) = (   0.0000000   0.0000000   0.0000000), wk =   0.0465116

     Dense  grid:     3287 G-vectors     FFT dimensions: (  24,  24,  24)

     Dynamical RAM for                 wfc:       0.06 MB

     Dynamical RAM for     wfc (w. buffer):       0.06 MB

     Dynamical RAM for           str. fact:       0.05 MB

     Dynamical RAM for           local pot:       0.00 MB

     Dynamical RAM for          nlocal pot:       0.22 MB

     Dynamical RAM for                qrad:       0.72 MB

     Dynamical RAM for          rho,v,vnew:       0.47 MB

     Dynamical RAM for           G-vectors:       0.21 MB

     Dynamical RAM for          h,s,v(r/c):       0.02 MB

     Dynamical RAM for          <psi|beta>:       0.01 MB

     Dynamical RAM for                 psi:       0.12 MB

     Dynamical RAM for                hpsi:       0.12 MB

     Dynamical RAM for      wfcinit/wfcrot:       0.13 MB

     Estimated static dynamical RAM per process >       2.36 MB

     Estimated max dynamical RAM per process >       2.64 MB

     The potential is recalculated from file :
     ./out/si.save/charge-density

     Starting wfcs are    8 randomized atomic wfcs +    2 random wfcs

     Band Structure Calculation
     Davidson diagonalization with overlap

     Computing kpt #:     1  of    43
     total cpu time spent up to now is        0.2 secs

     Computing kpt #:     2  of    43
     total cpu time spent up to now is        0.2 secs

     Computing kpt #:     3  of    43
     total cpu time spent up to now is        0.3 secs

     Computing kpt #:     4  of    43
     total cpu time spent up to now is        0.3 secs

     Computing kpt #:     5  of    43
     total cpu time spent up to now is        0.4 secs

     Computing kpt #:     6  of    43
     total cpu time spent up to now is        0.4 secs

     Computing kpt #:     7  of    43
     total cpu time spent up to now is        0.5 secs

     Computing kpt #:     8  of    43
     total cpu time spent up to now is        0.5 secs

     Computing kpt #:     9  of    43
     total cpu time spent up to now is        0.5 secs

     Computing kpt #:    10  of    43
     total cpu time spent up to now is        0.6 secs

     Computing kpt #:    11  of    43
     total cpu time spent up to now is        0.6 secs

     Computing kpt #:    12  of    43
     total cpu time spent up to now is        0.7 secs

     Computing kpt #:    13  of    43
     total cpu time spent up to now is        0.7 secs

     Computing kpt #:    14  of    43
     total cpu time spent up to now is        0.8 secs

     Computing kpt #:    15  of    43
     total cpu time spent up to now is        0.8 secs

     Computing kpt #:    16  of    43
     total cpu time spent up to now is        0.8 secs

     Computing kpt #:    17  of    43
     total cpu time spent up to now is        0.9 secs

     Computing kpt #:    18  of    43
     total cpu time spent up to now is        0.9 secs

     Computing kpt #:    19  of    43
     total cpu time spent up to now is        1.0 secs

     Computing kpt #:    20  of    43
     total cpu time spent up to now is        1.0 secs

     Computing kpt #:    21  of    43
     total cpu time spent up to now is        1.1 secs

     Computing kpt #:    22  of    43
     total cpu time spent up to now is        1.1 secs

     Computing kpt #:    23  of    43
     total cpu time spent up to now is        1.2 secs

     Computing kpt #:    24  of    43
     total cpu time spent up to now is        1.2 secs

     Computing kpt #:    25  of    43
     total cpu time spent up to now is        1.3 secs

     Computing kpt #:    26  of    43
     total cpu time spent up to now is        1.3 secs

     Computing kpt #:    27  of    43
     total cpu time spent up to now is        1.4 secs

     Computing kpt #:    28  of    43
     total cpu time spent up to now is        1.4 secs

     Computing kpt #:    29  of    43
     total cpu time spent up to now is        1.5 secs

     Computing kpt #:    30  of    43
     total cpu time spent up to now is        1.5 secs

     Computing kpt #:    31  of    43
     total cpu time spent up to now is        1.5 secs

     Computing kpt #:    32  of    43
     total cpu time spent up to now is        1.6 secs

     Computing kpt #:    33  of    43
     total cpu time spent up to now is        1.6 secs

     Computing kpt #:    34  of    43
     total cpu time spent up to now is        1.6 secs

     Computing kpt #:    35  of    43
     total cpu time spent up to now is        1.7 secs

     Computing kpt #:    36  of    43
     total cpu time spent up to now is        1.7 secs

     Computing kpt #:    37  of    43
     total cpu time spent up to now is        1.8 secs

     Computing kpt #:    38  of    43
     total cpu time spent up to now is        1.8 secs

     Computing kpt #:    39  of    43
     total cpu time spent up to now is        1.8 secs

     Computing kpt #:    40  of    43
     total cpu time spent up to now is        1.9 secs

     Computing kpt #:    41  of    43
     total cpu time spent up to now is        1.9 secs

     Computing kpt #:    42  of    43
     total cpu time spent up to now is        2.0 secs

     Computing kpt #:    43  of    43
     total cpu time spent up to now is        2.0 secs

     ethr =  2.00E-10,  avg # of iterations = 36.9

     total cpu time spent up to now is        2.0 secs

     End of band structure calculation

          k =-0.5000 0.5000 0.5000 (   410 PWs)   bands (ev):

    -3.5818  -0.9489   4.8504   4.8504   7.4814   9.3703   9.3703  13.5794
    16.6650  16.6650

          k =-0.4444 0.4444 0.4444 (   407 PWs)   bands (ev):

    -3.7458  -0.7081   4.8728   4.8728   7.5073   9.3956   9.3956  13.6188
    15.8473  15.8473

          k =-0.3889 0.3889 0.3889 (   413 PWs)   bands (ev):

    -4.1181  -0.1084   4.9390   4.9390   7.5774   9.4611   9.4611  13.7159
    14.8780  14.8780

          k =-0.3333 0.3333 0.3333 (   407 PWs)   bands (ev):

    -4.5399   0.6910   5.0492   5.0492   7.7031   9.5360   9.5360  13.7330
    14.0634  14.0634

          k =-0.2778 0.2778 0.2778 (   407 PWs)   bands (ev):

    -4.9378   1.6090   5.2004   5.2004   7.8754   9.5593   9.5593  13.2272
    13.4703  13.4703

          k =-0.2222 0.2222 0.2222 (   398 PWs)   bands (ev):

    -5.2806   2.6062   5.3880   5.3880   8.0874   9.4655   9.4655  12.3314
    13.1777  13.1777

          k =-0.1667 0.1667 0.1667 (   396 PWs)   bands (ev):

    -5.5552   3.6485   5.6012   5.6012   8.3135   9.2342   9.2342  11.3488
    13.1895  13.1895

          k =-0.1111 0.1111 0.1111 (   402 PWs)   bands (ev):

    -5.7550   4.6904   5.8150   5.8150   8.5228   8.9360   8.9360  10.3681
    13.4150  13.4150

          k =-0.0556 0.0556 0.0556 (   411 PWs)   bands (ev):

    -5.8762   5.6129   5.9861   5.9861   8.6312   8.6837   8.6837   9.5343
    13.7063  13.7063

          k = 0.0000 0.0000 0.0000 (   411 PWs)   bands (ev):

    -5.9167   6.0545   6.0545   6.0545   8.5839   8.5839   8.5839   9.2159
    13.7246  13.8495

          k =-0.0909 0.0000 0.0000 (   411 PWs)   bands (ev):

    -5.8805   5.8117   5.9054   5.9054   8.4917   8.7772   8.7772   9.4509
    13.5565  13.8879

          k =-0.1818 0.0000 0.0000 (   399 PWs)   bands (ev):

    -5.7719   5.2322   5.5546   5.5546   8.2487   9.2618   9.2618   9.9688
    12.9437  14.0177

          k =-0.2727 0.0000 0.0000 (   399 PWs)   bands (ev):

    -5.5922   4.5075   5.1349   5.1349   7.9233   9.8990   9.8990  10.3445
    12.4979  14.2201

          k =-0.3636 0.0000 0.0000 (   407 PWs)   bands (ev):

    -5.3421   3.7250   4.7163   4.7163   7.5776  10.0966  10.6159  10.6159
    12.7604  14.4998

          k =-0.4545 0.0000 0.0000 (   415 PWs)   bands (ev):

    -5.0221   2.9191   4.3303   4.3303   7.2510   9.4541  11.3807  11.3807
    13.5224  14.8590

          k =-0.5455 0.0000 0.0000 (   415 PWs)   bands (ev):

    -4.6339   2.1052   3.9915   3.9915   6.9704   8.7701  12.1775  12.1775
    14.4405  15.2979

          k =-0.6364 0.0000 0.0000 (   419 PWs)   bands (ev):

    -4.1800   1.2913   3.7077   3.7077   6.7495   8.1481  12.9911  12.9911
    15.4003  15.8146

          k =-0.7273 0.0000 0.0000 (   420 PWs)   bands (ev):

    -3.6635   0.4882   3.4833   3.4833   6.6018   7.6219  13.8270  13.8270
    16.3523  16.4111

          k =-0.8182 0.0000 0.0000 (   416 PWs)   bands (ev):

    -3.0876  -0.2966   3.3214   3.3214   6.5353   7.2032  14.6749  14.6749
    17.0854  17.2683

          k =-0.9091 0.0000 0.0000 (   412 PWs)   bands (ev):

    -2.4569  -1.0538   3.2237   3.2237   6.5569   6.8856  15.5034  15.5034
    17.6281  17.6281

          k =-1.0000 0.0000 0.0000 (   412 PWs)   bands (ev):

    -1.7767  -1.7767   3.1911   3.1911   6.6720   6.6720  16.0306  16.0306
    17.0952  17.0952

          k =-0.9722 0.0833-0.0000 (   411 PWs)   bands (ev):

    -1.9774  -1.5522   3.0982   3.1075   6.7977   6.8932  15.5664  15.8153
    16.7261  16.9913

          k =-0.9444 0.1667-0.0000 (   411 PWs)   bands (ev):

    -2.1436  -1.3207   2.8582   2.9231   7.2289   7.3972  14.4065  15.3110
    16.1748  17.1382

          k =-0.9167 0.2500 0.0000 (   411 PWs)   bands (ev):

    -2.2700  -1.1086   2.5558   2.7483   7.8740   8.0965  13.1025  14.5800
    15.7722  17.2685

          k =-0.8889 0.3333-0.0000 (   407 PWs)   bands (ev):

    -2.3544  -0.9495   2.2574   2.6695   8.6611   8.9261  11.8135  13.7710
    15.4472  17.1415

          k =-0.8611 0.4167 0.0000 (   404 PWs)   bands (ev):

    -2.3972  -0.8712   2.0012   2.7364   9.5413   9.7823  10.6536  12.9725
    15.1349  16.7673

          k =-0.8333 0.5000 0.0000 (   406 PWs)   bands (ev):

    -2.3997  -0.8795   1.8086   2.9501   9.3134  10.4695  10.9867  12.2319
    14.8104  16.2397

          k =-0.8056 0.5833 0.0000 (   408 PWs)   bands (ev):

    -2.3643  -0.9526   1.6926   3.2577   8.3224  11.1410  11.8445  12.0468
    14.4745  15.6358

          k =-0.7778 0.6667 0.0000 (   410 PWs)   bands (ev):

    -2.2925  -1.0625   1.6603   3.5435   7.5437  10.6978  12.6495  13.1745
    14.1417  15.0209

          k =-0.7500 0.7500 0.0000 (   409 PWs)   bands (ev):

    -2.1853  -1.1884   1.7150   3.6193   7.1715  10.1189  13.4699  14.0023
    14.1492  14.6047

          k =-0.6923 0.6923 0.0000 (   403 PWs)   bands (ev):

    -2.4891  -0.8867   1.5991   3.8294   7.4167  11.3002  12.7816  13.3054
    13.5913  14.0035

          k =-0.6346 0.6346 0.0000 (   403 PWs)   bands (ev):

    -2.8707  -0.5245   1.6510   4.0723   7.6996  12.1320  12.2048  12.9875
    13.0668  13.4652

          k =-0.5769 0.5769 0.0000 (   407 PWs)   bands (ev):

    -3.2955  -0.1026   1.8434   4.3406   8.0086  11.5298  11.8332  12.5925
    13.0028  14.0144

          k =-0.5192 0.5192-0.0000 (   411 PWs)   bands (ev):

    -3.7305   0.3785   2.1464   4.6244   8.3261  10.9788  11.2897  12.1880
    12.6263  15.2213

          k =-0.4615 0.4615 0.0000 (   409 PWs)   bands (ev):

    -4.1519   0.9182   2.5358   4.9117   8.6233  10.4820  10.7820  11.8793
    12.3546  16.2003

          k =-0.4038 0.4038 0.0000 (   409 PWs)   bands (ev):

    -4.5439   1.5134   2.9924   5.1874   8.8620  10.0409  10.3235  11.6876
    12.1989  16.5859

          k =-0.3462 0.3462-0.0000 (   397 PWs)   bands (ev):

    -4.8953   2.1624   3.4998   5.4373   9.0052   9.6585   9.9206  11.6157
    12.1779  15.6451

          k =-0.2885 0.2885 0.0000 (   395 PWs)   bands (ev):

    -5.2009   2.8589   4.0399   5.6470   9.0424   9.3324   9.5666  11.5838
    12.2878  14.6032

          k =-0.2308 0.2308 0.0000 (   399 PWs)   bands (ev):

    -5.4556   3.5956   4.5917   5.8100   9.0026   9.0637   9.2598  11.3796
    12.5266  13.9020

          k =-0.1731 0.1731 0.0000 (   403 PWs)   bands (ev):

    -5.6562   4.3576   5.1244   5.9257   8.8548   8.9256   8.9998  10.8171
    12.8795  13.6756

          k =-0.1154 0.1154 0.0000 (   405 PWs)   bands (ev):

    -5.8003   5.1117   5.5925   6.0008   8.7046   8.7898   8.8305  10.0662
    13.2962  13.7183

          k =-0.0577 0.0577-0.0000 (   411 PWs)   bands (ev):

    -5.8876   5.7607   5.9289   6.0416   8.6139   8.6402   8.6995   9.4369
    13.6776  13.8102

          k = 0.0000 0.0000 0.0000 (   411 PWs)   bands (ev):

    -5.9167   6.0545   6.0545   6.0545   8.5839   8.5839   8.5839   9.2159
    13.7246  13.8495

     Writing all to output data dir ./out/si.save/
 
     init_run     :      0.02s CPU      0.02s WALL (       1 calls)
     electrons    :      1.86s CPU      1.90s WALL (       1 calls)

     Called by init_run:
     wfcinit      :      0.00s CPU      0.00s WALL (       1 calls)
     wfcinit:atom :      0.00s CPU      0.00s WALL (      43 calls)
     wfcinit:wfcr :      0.06s CPU      0.07s WALL (      43 calls)
     potinit      :      0.00s CPU      0.00s WALL (       1 calls)
     hinit0       :      0.01s CPU      0.01s WALL (       1 calls)

     Called by electrons:
     c_bands      :      1.86s CPU      1.90s WALL (       1 calls)
     v_of_rho     :      0.00s CPU      0.00s WALL (       1 calls)
     v_h          :      0.00s CPU      0.00s WALL (       1 calls)
     v_xc         :      0.00s CPU      0.00s WALL (       1 calls)

     Called by c_bands:
     init_us_2    :      0.00s CPU      0.00s WALL (      43 calls)
     init_us_2:cp :      0.00s CPU      0.00s WALL (      43 calls)
     cegterg      :      1.75s CPU      1.78s WALL (      97 calls)

     Called by sum_band:

     Called by *egterg:
     cdiaghg      :      0.17s CPU      0.18s WALL (    1628 calls)
     cegterg:over :      0.05s CPU      0.05s WALL (    1585 calls)
     cegterg:upda :      0.03s CPU      0.03s WALL (    1585 calls)
     cegterg:last :      0.04s CPU      0.04s WALL (     986 calls)
     h_psi        :      1.48s CPU      1.51s WALL (    1725 calls)
     g_psi        :      0.01s CPU      0.01s WALL (    1585 calls)

     Called by h_psi:
     h_psi:calbec :      0.05s CPU      0.05s WALL (    1725 calls)
     vloc_psi     :      1.37s CPU      1.40s WALL (    1725 calls)
     add_vuspsi   :      0.04s CPU      0.04s WALL (    1725 calls)

     General routines
     calbec       :      0.05s CPU      0.05s WALL (    1725 calls)
     fft          :      0.00s CPU      0.00s WALL (       4 calls)
     fftw         :      1.21s CPU      1.23s WALL (   20014 calls)
     davcio       :      0.01s CPU      0.01s WALL (      86 calls)
 
     Parallel routines
 
     PWSCF        :      1.99s CPU      2.06s WALL

 
   This run was terminated on:  14:28:10  17Oct2022            

=------------------------------------------------------------------------------=
   JOB DONE.
=------------------------------------------------------------------------------=
