
     Program PROJWFC v.7.1 starts on 18Oct2022 at  8:34:30 

     This program is part of the open-source Quantum ESPRESSO suite
     for quantum simulation of materials; please cite
         "P. Giannozzi et al., J. Phys.:Condens. Matter 21 395502 (2009);
         "P. Giannozzi et al., J. Phys.:Condens. Matter 29 465901 (2017);
         "P. Giannozzi et al., J. Chem. Phys. 152 154105 (2020);
          URL http://www.quantum-espresso.org", 
     in publications or presentations arising from this work. More details at
     http://www.quantum-espresso.org/quote

     Parallel version (MPI), running on     1 processors

     MPI processes distributed on     1 nodes
     195 MiB available memory on the printing compute node when the environment starts
 

     Reading xml data from directory:

     ../out/kc_kcw.save/
     Message from routine qexsd_readschema :
     input info not found or not readable in xml file

     IMPORTANT: XC functional enforced from input :
     Exchange-correlation= PW
                           (   1   4   0   0   0   0   0)
     Any further DFT definition will be discarded
     Please, verify this is what you really want

 
     G-vector sticks info
     --------------------
     sticks:   dense  smooth     PW     G-vecs:    dense   smooth      PW
     Sum         511     511    163                15291    15291    2875
 
     Using Slab Decomposition
 

     Check: negative core charge=   -0.000271

     Gaussian broadening (read from input): ngauss,degauss=   0    0.020000


     Calling projwave .... 
     Subspace diagonalization in iterative solution of the eigenvalue problem:
     a serial algorithm will be used

 
  Problem Sizes 
  natomwfc =           28
  nbnd     =           28
  nkstot   =          128
  npwx     =         1934
  nkb      =           62
 

     Atomic states used for projection
     (read from pseudopotential files):

     state #   1: atom   1 (Zn ), wfc  1 (l=0 m= 1)
     state #   2: atom   1 (Zn ), wfc  2 (l=1 m= 1)
     state #   3: atom   1 (Zn ), wfc  2 (l=1 m= 2)
     state #   4: atom   1 (Zn ), wfc  2 (l=1 m= 3)
     state #   5: atom   1 (Zn ), wfc  3 (l=2 m= 1)
     state #   6: atom   1 (Zn ), wfc  3 (l=2 m= 2)
     state #   7: atom   1 (Zn ), wfc  3 (l=2 m= 3)
     state #   8: atom   1 (Zn ), wfc  3 (l=2 m= 4)
     state #   9: atom   1 (Zn ), wfc  3 (l=2 m= 5)
     state #  10: atom   1 (Zn ), wfc  4 (l=0 m= 1)
     state #  11: atom   2 (Zn ), wfc  1 (l=0 m= 1)
     state #  12: atom   2 (Zn ), wfc  2 (l=1 m= 1)
     state #  13: atom   2 (Zn ), wfc  2 (l=1 m= 2)
     state #  14: atom   2 (Zn ), wfc  2 (l=1 m= 3)
     state #  15: atom   2 (Zn ), wfc  3 (l=2 m= 1)
     state #  16: atom   2 (Zn ), wfc  3 (l=2 m= 2)
     state #  17: atom   2 (Zn ), wfc  3 (l=2 m= 3)
     state #  18: atom   2 (Zn ), wfc  3 (l=2 m= 4)
     state #  19: atom   2 (Zn ), wfc  3 (l=2 m= 5)
     state #  20: atom   2 (Zn ), wfc  4 (l=0 m= 1)
     state #  21: atom   3 (O  ), wfc  1 (l=0 m= 1)
     state #  22: atom   3 (O  ), wfc  2 (l=1 m= 1)
     state #  23: atom   3 (O  ), wfc  2 (l=1 m= 2)
     state #  24: atom   3 (O  ), wfc  2 (l=1 m= 3)
     state #  25: atom   4 (O  ), wfc  1 (l=0 m= 1)
     state #  26: atom   4 (O  ), wfc  2 (l=1 m= 1)
     state #  27: atom   4 (O  ), wfc  2 (l=1 m= 2)
     state #  28: atom   4 (O  ), wfc  2 (l=1 m= 3)

 k =   0.0000000000  0.0000000000  0.0000000000
==== e(   1) =  -121.80630 eV ==== 
     psi = 0.498*[#  11]+0.498*[#   1]+0.002*[#  22]+0.002*[#  26]
    |psi|^2 = 1.000
==== e(   2) =  -121.66937 eV ==== 
     psi = 0.497*[#   1]+0.497*[#  11]+0.003*[#  10]+0.003*[#  20]
    |psi|^2 = 1.000
==== e(   3) =   -75.10175 eV ==== 
     psi = 0.508*[#  13]+0.491*[#   3]
    |psi|^2 = 1.000
==== e(   4) =   -75.10060 eV ==== 
     psi = 0.508*[#   3]+0.491*[#  13]
    |psi|^2 = 1.000
==== e(   5) =   -75.09685 eV ==== 
     psi = 0.508*[#  14]+0.491*[#   4]
    |psi|^2 = 1.000
==== e(   6) =   -75.09568 eV ==== 
     psi = 0.508*[#   4]+0.492*[#  14]
    |psi|^2 = 1.000
==== e(   7) =   -75.07246 eV ==== 
     psi = 0.501*[#   2]+0.499*[#  12]
    |psi|^2 = 1.000
==== e(   8) =   -74.88248 eV ==== 
     psi = 0.500*[#  12]+0.498*[#   2]
    |psi|^2 = 1.000
==== e(   9) =   -10.67673 eV ==== 
     psi = 0.339*[#  21]+0.339*[#  25]+0.158*[#  10]+0.158*[#  20]+0.002*[#   1]
          +0.002*[#  11]
    |psi|^2 = 0.998
==== e(  10) =   -10.08074 eV ==== 
     psi = 0.436*[#  21]+0.436*[#  25]+0.035*[#  10]+0.035*[#  20]+0.026*[#   5]
          +0.026*[#  15]
    |psi|^2 = 0.996
==== e(  11) =    -0.61049 eV ==== 
     psi = 0.322*[#   9]+0.322*[#  19]+0.110*[#   6]+0.110*[#  16]+0.068*[#  23]
          +0.068*[#  27]
    |psi|^2 = 1.000
==== e(  12) =    -0.60960 eV ==== 
     psi = 0.322*[#   8]+0.322*[#  18]+0.109*[#   7]+0.109*[#  17]+0.068*[#  24]
          +0.068*[#  28]
    |psi|^2 = 1.000
==== e(  13) =    -0.41620 eV ==== 
     psi = 0.434*[#   5]+0.434*[#  15]+0.065*[#  22]+0.065*[#  26]
    |psi|^2 = 0.999
==== e(  14) =    -0.40404 eV ==== 
     psi = 0.420*[#   9]+0.420*[#  19]+0.061*[#  23]+0.061*[#  27]+0.018*[#   6]
          +0.018*[#  16]
    |psi|^2 = 0.999
==== e(  15) =    -0.40374 eV ==== 
     psi = 0.420*[#   8]+0.420*[#  18]+0.061*[#  24]+0.061*[#  28]+0.018*[#   7]
          +0.018*[#  17]
    |psi|^2 = 0.999
==== e(  16) =     0.22077 eV ==== 
     psi = 0.370*[#   6]+0.370*[#  16]+0.130*[#   9]+0.130*[#  19]
    |psi|^2 = 0.999
==== e(  17) =     0.22156 eV ==== 
     psi = 0.370*[#   7]+0.370*[#  17]+0.129*[#   8]+0.129*[#  18]
    |psi|^2 = 0.999
==== e(  18) =     0.32518 eV ==== 
     psi = 0.480*[#  16]+0.480*[#   6]+0.020*[#   9]+0.020*[#  19]
    |psi|^2 = 1.000
==== e(  19) =     0.32560 eV ==== 
     psi = 0.480*[#  17]+0.480*[#   7]+0.020*[#   8]+0.020*[#  18]
    |psi|^2 = 1.000
==== e(  20) =     0.67466 eV ==== 
     psi = 0.369*[#   5]+0.369*[#  15]+0.085*[#  22]+0.085*[#  26]+0.026*[#  21]
          +0.026*[#  25]+0.009*[#  10]+0.009*[#  20]
    |psi|^2 = 0.979
==== e(  21) =     2.22190 eV ==== 
     psi = 0.309*[#  22]+0.309*[#  26]+0.103*[#   5]+0.103*[#  15]+0.078*[#  10]
          +0.078*[#  20]
    |psi|^2 = 0.983
==== e(  22) =     6.45506 eV ==== 
     psi = 0.428*[#  23]+0.428*[#  27]+0.059*[#   9]+0.059*[#  19]+0.002*[#   6]
          +0.002*[#  16]
    |psi|^2 = 0.979
==== e(  23) =     6.45598 eV ==== 
     psi = 0.428*[#  24]+0.428*[#  28]+0.059*[#   8]+0.059*[#  18]+0.002*[#   7]
          +0.002*[#  17]
    |psi|^2 = 0.979
==== e(  24) =     7.28063 eV ==== 
     psi = 0.427*[#  24]+0.427*[#  28]+0.048*[#   8]+0.048*[#  18]+0.020*[#   7]
          +0.020*[#  17]
    |psi|^2 = 0.991
==== e(  25) =     7.28094 eV ==== 
     psi = 0.427*[#  23]+0.427*[#  27]+0.048*[#   9]+0.048*[#  19]+0.020*[#   6]
          +0.020*[#  16]
    |psi|^2 = 0.991
==== e(  26) =     7.32540 eV ==== 
     psi = 0.429*[#  22]+0.429*[#  26]+0.064*[#   5]+0.064*[#  15]+0.002*[#  10]
          +0.002*[#  20]
    |psi|^2 = 0.992
==== e(  27) =    10.77031 eV ==== 
     psi = 0.335*[#  10]+0.335*[#  20]+0.158*[#  21]+0.158*[#  25]+0.002*[#  22]
          +0.002*[#  26]
    |psi|^2 = 0.994
==== e(  28) =    14.88840 eV ==== 
     psi = 0.289*[#  10]+0.289*[#  20]+0.037*[#  22]+0.037*[#  26]+0.033*[#  21]
          +0.033*[#  25]
    |psi|^2 = 0.720

 k =   0.0000000000  0.0000000000 -0.1560513011
==== e(   1) =  -121.78063 eV ==== 
     psi = 0.498*[#  11]+0.498*[#   1]+0.001*[#  22]+0.001*[#  26]
    |psi|^2 = 1.000
==== e(   2) =  -121.59910 eV ==== 
     psi = 0.497*[#   1]+0.497*[#  11]+0.002*[#  10]+0.002*[#  20]
    |psi|^2 = 1.000
==== e(   3) =   -75.09629 eV ==== 
     psi = 0.501*[#   2]+0.499*[#  12]
    |psi|^2 = 1.000
==== e(   4) =   -75.07119 eV ==== 
     psi = 0.500*[#  13]+0.499*[#   3]
    |psi|^2 = 1.000
==== e(   5) =   -75.06622 eV ==== 
     psi = 0.500*[#  14]+0.499*[#   4]
    |psi|^2 = 1.000
==== e(   6) =   -75.04604 eV ==== 
     psi = 0.500*[#   3]+0.499*[#  13]
    |psi|^2 = 1.000
==== e(   7) =   -75.04119 eV ==== 
     psi = 0.500*[#   4]+0.499*[#  14]
    |psi|^2 = 1.000
==== e(   8) =   -74.89864 eV ==== 
     psi = 0.500*[#  12]+0.498*[#   2]
    |psi|^2 = 1.000
==== e(   9) =   -10.55770 eV ==== 
     psi = 0.348*[#  21]+0.348*[#  25]+0.147*[#  10]+0.147*[#  20]+0.002*[#   5]
          +0.002*[#  15]+0.002*[#   1]+0.002*[#  11]
    |psi|^2 = 0.998
==== e(  10) =   -10.15498 eV ==== 
     psi = 0.417*[#  21]+0.417*[#  25]+0.059*[#  10]+0.059*[#  20]+0.021*[#   5]
          +0.021*[#  15]
    |psi|^2 = 0.997
==== e(  11) =    -0.52639 eV ==== 
     psi = 0.314*[#   9]+0.314*[#  19]+0.117*[#   6]+0.117*[#  16]+0.069*[#  23]
          +0.069*[#  27]
    |psi|^2 = 0.999
==== e(  12) =    -0.52558 eV ==== 
     psi = 0.314*[#   8]+0.314*[#  18]+0.117*[#   7]+0.117*[#  17]+0.069*[#  24]
          +0.069*[#  28]
    |psi|^2 = 0.999
==== e(  13) =    -0.51567 eV ==== 
     psi = 0.423*[#   5]+0.423*[#  15]+0.071*[#  22]+0.071*[#  26]+0.005*[#  10]
          +0.005*[#  20]
    |psi|^2 = 0.999
==== e(  14) =    -0.39031 eV ==== 
     psi = 0.400*[#   9]+0.400*[#  19]+0.064*[#  23]+0.064*[#  27]+0.036*[#   6]
          +0.036*[#  16]
    |psi|^2 = 0.999
==== e(  15) =    -0.38987 eV ==== 
     psi = 0.400*[#   8]+0.400*[#  18]+0.064*[#  24]+0.064*[#  28]+0.036*[#   7]
          +0.036*[#  17]
    |psi|^2 = 0.999
==== e(  16) =     0.08857 eV ==== 
     psi = 0.359*[#   5]+0.359*[#  15]+0.098*[#  22]+0.098*[#  26]+0.031*[#  10]
          +0.031*[#  20]+0.008*[#  21]+0.008*[#  25]
    |psi|^2 = 0.994
==== e(  17) =     0.28203 eV ==== 
     psi = 0.364*[#   6]+0.364*[#  16]+0.135*[#   9]+0.135*[#  19]
    |psi|^2 = 0.999
==== e(  18) =     0.28268 eV ==== 
     psi = 0.365*[#   7]+0.365*[#  17]+0.135*[#   8]+0.135*[#  18]
    |psi|^2 = 0.999
==== e(  19) =     0.44432 eV ==== 
     psi = 0.457*[#   6]+0.457*[#  16]+0.042*[#   9]+0.042*[#  19]
    |psi|^2 = 1.000
==== e(  20) =     0.44475 eV ==== 
     psi = 0.458*[#   7]+0.458*[#  17]+0.042*[#   8]+0.042*[#  18]
    |psi|^2 = 1.000
==== e(  21) =     3.13234 eV ==== 
     psi = 0.284*[#  22]+0.284*[#  26]+0.118*[#   5]+0.118*[#  15]+0.059*[#  10]
          +0.059*[#  20]+0.024*[#  21]+0.024*[#  25]
    |psi|^2 = 0.972
==== e(  22) =     6.03378 eV ==== 
     psi = 0.291*[#  22]+0.291*[#  26]+0.085*[#  10]+0.085*[#  20]+0.066*[#   5]
          +0.066*[#  15]+0.052*[#  21]+0.052*[#  25]
    |psi|^2 = 0.989
==== e(  23) =     6.63103 eV ==== 
     psi = 0.426*[#  23]+0.426*[#  27]+0.057*[#   9]+0.057*[#  19]+0.006*[#   6]
          +0.006*[#  16]
    |psi|^2 = 0.981
==== e(  24) =     6.63184 eV ==== 
     psi = 0.426*[#  24]+0.426*[#  28]+0.057*[#   8]+0.057*[#  18]+0.006*[#   7]
          +0.006*[#  17]
    |psi|^2 = 0.981
==== e(  25) =     7.20256 eV ==== 
     psi = 0.425*[#  24]+0.425*[#  28]+0.051*[#   8]+0.051*[#  18]+0.018*[#   7]
          +0.018*[#  17]
    |psi|^2 = 0.989
==== e(  26) =     7.20261 eV ==== 
     psi = 0.425*[#  23]+0.425*[#  27]+0.050*[#   9]+0.050*[#  19]+0.018*[#   6]
          +0.018*[#  16]
    |psi|^2 = 0.989
==== e(  27) =    11.90000 eV ==== 
     psi = 0.259*[#  10]+0.257*[#  20]+0.133*[#  26]+0.128*[#  22]+0.098*[#  21]
          +0.096*[#  25]+0.008*[#   5]+0.008*[#  15]
    |psi|^2 = 0.989
==== e(  28) =    14.51507 eV ==== 
     psi = 0.311*[#  20]+0.309*[#  10]+0.071*[#  22]+0.066*[#  26]+0.047*[#  25]
          +0.046*[#  21]
    |psi|^2 = 0.851

 k =   0.0000000000  0.0000000000  0.3121026021
==== e(   1) =  -121.70129 eV ==== 
     psi = 0.996*[#  11]+0.001*[#  20]+0.001*[#  26]
    |psi|^2 = 1.000
==== e(   2) =  -121.70125 eV ==== 
     psi = 0.996*[#   1]+0.001*[#  10]+0.001*[#  22]
    |psi|^2 = 1.000
==== e(   3) =   -75.06474 eV ==== 
     psi = 0.999*[#  13]
    |psi|^2 = 1.000
==== e(   4) =   -75.06472 eV ==== 
     psi = 0.999*[#   3]
    |psi|^2 = 1.000
==== e(   5) =   -75.05983 eV ==== 
     psi = 0.999*[#  14]
    |psi|^2 = 1.000
==== e(   6) =   -75.05982 eV ==== 
     psi = 0.999*[#   4]
    |psi|^2 = 1.000
==== e(   7) =   -75.02345 eV ==== 
     psi = 0.998*[#   2]
    |psi|^2 = 1.000
==== e(   8) =   -75.02305 eV ==== 
     psi = 0.998*[#  12]
    |psi|^2 = 1.000
==== e(   9) =   -10.34817 eV ==== 
     psi = 0.584*[#  21]+0.210*[#  20]+0.174*[#  25]+0.017*[#   5]+0.006*[#  10]
          +0.003*[#  15]+0.002*[#  11]
    |psi|^2 = 0.998
==== e(  10) =   -10.34816 eV ==== 
     psi = 0.584*[#  25]+0.210*[#  10]+0.174*[#  21]+0.017*[#  15]+0.006*[#  20]
          +0.003*[#   5]+0.002*[#   1]
    |psi|^2 = 0.998
==== e(  11) =    -0.47305 eV ==== 
     psi = 0.348*[#  19]+0.347*[#   9]+0.167*[#   6]+0.068*[#  27]+0.065*[#  23]
          +0.004*[#  16]
    |psi|^2 = 0.999
==== e(  12) =    -0.47305 eV ==== 
     psi = 0.348*[#   9]+0.347*[#  19]+0.167*[#  16]+0.068*[#  23]+0.065*[#  27]
          +0.004*[#   6]
    |psi|^2 = 0.999
==== e(  13) =    -0.47237 eV ==== 
     psi = 0.349*[#  18]+0.346*[#   8]+0.167*[#   7]+0.068*[#  28]+0.065*[#  24]
          +0.004*[#  17]
    |psi|^2 = 0.999
==== e(  14) =    -0.47237 eV ==== 
     psi = 0.349*[#   8]+0.346*[#  18]+0.167*[#  17]+0.068*[#  24]+0.065*[#  28]
          +0.004*[#   7]
    |psi|^2 = 0.999
==== e(  15) =    -0.43367 eV ==== 
     psi = 0.776*[#   5]+0.105*[#  26]+0.067*[#  22]+0.045*[#  20]+0.002*[#  15]
          +0.002*[#  25]
    |psi|^2 = 0.999
==== e(  16) =    -0.43360 eV ==== 
     psi = 0.776*[#  15]+0.105*[#  22]+0.067*[#  26]+0.045*[#  10]+0.002*[#   5]
          +0.002*[#  21]
    |psi|^2 = 0.999
==== e(  17) =     0.32998 eV ==== 
     psi = 0.802*[#   6]+0.131*[#   9]+0.066*[#  19]
    |psi|^2 = 0.999
==== e(  18) =     0.33000 eV ==== 
     psi = 0.802*[#  16]+0.131*[#  19]+0.066*[#   9]
    |psi|^2 = 0.999
==== e(  19) =     0.33047 eV ==== 
     psi = 0.803*[#   7]+0.131*[#   8]+0.066*[#  18]
    |psi|^2 = 0.999
==== e(  20) =     0.33048 eV ==== 
     psi = 0.803*[#  17]+0.131*[#  18]+0.066*[#   8]
    |psi|^2 = 0.999
==== e(  21) =     4.63491 eV ==== 
     psi = 0.381*[#  22]+0.177*[#   5]+0.169*[#  26]+0.108*[#  20]+0.061*[#  25]
          +0.035*[#  10]+0.028*[#  21]+0.018*[#  15]+0.001*[#  11]
    |psi|^2 = 0.979
==== e(  22) =     4.63498 eV ==== 
     psi = 0.381*[#  26]+0.177*[#  15]+0.169*[#  22]+0.108*[#  10]+0.061*[#  21]
          +0.035*[#  20]+0.028*[#  25]+0.018*[#   5]+0.001*[#   1]
    |psi|^2 = 0.979
==== e(  23) =     6.91126 eV ==== 
     psi = 0.609*[#  23]+0.243*[#  27]+0.077*[#  19]+0.030*[#   9]+0.021*[#   6]
          +0.005*[#  16]
    |psi|^2 = 0.985
==== e(  24) =     6.91126 eV ==== 
     psi = 0.609*[#  27]+0.243*[#  23]+0.077*[#   9]+0.030*[#  19]+0.021*[#  16]
          +0.005*[#   6]
    |psi|^2 = 0.985
==== e(  25) =     6.91166 eV ==== 
     psi = 0.609*[#  24]+0.243*[#  28]+0.077*[#  18]+0.030*[#   8]+0.021*[#   7]
          +0.005*[#  17]
    |psi|^2 = 0.985
==== e(  26) =     6.91166 eV ==== 
     psi = 0.609*[#  28]+0.243*[#  24]+0.077*[#   8]+0.030*[#  18]+0.021*[#  17]
          +0.005*[#   7]
    |psi|^2 = 0.985
==== e(  27) =    13.36082 eV ==== 
     psi = 0.325*[#  10]+0.253*[#  20]+0.199*[#  26]+0.109*[#  21]+0.036*[#  22]
          +0.035*[#  25]+0.004*[#  15]
    |psi|^2 = 0.961
==== e(  28) =    13.46682 eV ==== 
     psi = 0.325*[#  20]+0.253*[#  10]+0.199*[#  22]+0.109*[#  25]+0.036*[#  26]
          +0.035*[#  21]+0.004*[#   5]
    |psi|^2 = 0.961

 k =   0.0000000000  0.0000000000  0.1560513011
==== e(   1) =  -121.78063 eV ==== 
     psi = 0.498*[#  11]+0.498*[#   1]+0.001*[#  22]+0.001*[#  26]
    |psi|^2 = 1.000
==== e(   2) =  -121.59910 eV ==== 
     psi = 0.497*[#   1]+0.497*[#  11]+0.002*[#  10]+0.002*[#  20]
    |psi|^2 = 1.000
==== e(   3) =   -75.09629 eV ==== 
     psi = 0.501*[#   2]+0.499*[#  12]
    |psi|^2 = 1.000
==== e(   4) =   -75.07119 eV ==== 
     psi = 0.500*[#  13]+0.499*[#   3]
    |psi|^2 = 1.000
==== e(   5) =   -75.06622 eV ==== 
     psi = 0.500*[#  14]+0.499*[#   4]
    |psi|^2 = 1.000
==== e(   6) =   -75.04604 eV ==== 
     psi = 0.500*[#   3]+0.499*[#  13]
    |psi|^2 = 1.000
==== e(   7) =   -75.04119 eV ==== 
     psi = 0.500*[#   4]+0.499*[#  14]
    |psi|^2 = 1.000
==== e(   8) =   -74.89864 eV ==== 
     psi = 0.500*[#  12]+0.498*[#   2]
    |psi|^2 = 1.000
==== e(   9) =   -10.55770 eV ==== 
     psi = 0.348*[#  21]+0.348*[#  25]+0.147*[#  10]+0.147*[#  20]+0.002*[#   5]
          +0.002*[#  15]+0.002*[#   1]+0.002*[#  11]
    |psi|^2 = 0.998
==== e(  10) =   -10.15498 eV ==== 
     psi = 0.417*[#  21]+0.417*[#  25]+0.059*[#  10]+0.059*[#  20]+0.021*[#   5]
          +0.021*[#  15]
    |psi|^2 = 0.997
==== e(  11) =    -0.52639 eV ==== 
     psi = 0.314*[#   9]+0.314*[#  19]+0.117*[#   6]+0.117*[#  16]+0.069*[#  23]
          +0.069*[#  27]
    |psi|^2 = 0.999
==== e(  12) =    -0.52558 eV ==== 
     psi = 0.314*[#   8]+0.314*[#  18]+0.117*[#   7]+0.117*[#  17]+0.069*[#  24]
          +0.069*[#  28]
    |psi|^2 = 0.999
==== e(  13) =    -0.51567 eV ==== 
     psi = 0.423*[#   5]+0.423*[#  15]+0.071*[#  22]+0.071*[#  26]+0.005*[#  10]
          +0.005*[#  20]
    |psi|^2 = 0.999
==== e(  14) =    -0.39031 eV ==== 
     psi = 0.400*[#   9]+0.400*[#  19]+0.064*[#  23]+0.064*[#  27]+0.036*[#   6]
          +0.036*[#  16]
    |psi|^2 = 0.999
==== e(  15) =    -0.38987 eV ==== 
     psi = 0.400*[#   8]+0.400*[#  18]+0.064*[#  24]+0.064*[#  28]+0.036*[#   7]
          +0.036*[#  17]
    |psi|^2 = 0.999
==== e(  16) =     0.08857 eV ==== 
     psi = 0.359*[#   5]+0.359*[#  15]+0.098*[#  22]+0.098*[#  26]+0.031*[#  10]
          +0.031*[#  20]+0.008*[#  21]+0.008*[#  25]
    |psi|^2 = 0.994
==== e(  17) =     0.28203 eV ==== 
     psi = 0.364*[#   6]+0.364*[#  16]+0.135*[#   9]+0.135*[#  19]
    |psi|^2 = 0.999
==== e(  18) =     0.28268 eV ==== 
     psi = 0.365*[#   7]+0.365*[#  17]+0.135*[#   8]+0.135*[#  18]
    |psi|^2 = 0.999
==== e(  19) =     0.44432 eV ==== 
     psi = 0.457*[#   6]+0.457*[#  16]+0.042*[#   9]+0.042*[#  19]
    |psi|^2 = 1.000
==== e(  20) =     0.44475 eV ==== 
     psi = 0.458*[#   7]+0.458*[#  17]+0.042*[#   8]+0.042*[#  18]
    |psi|^2 = 1.000
==== e(  21) =     3.13234 eV ==== 
     psi = 0.284*[#  22]+0.284*[#  26]+0.118*[#   5]+0.118*[#  15]+0.059*[#  10]
          +0.059*[#  20]+0.024*[#  21]+0.024*[#  25]
    |psi|^2 = 0.972
==== e(  22) =     6.03378 eV ==== 
     psi = 0.291*[#  22]+0.291*[#  26]+0.085*[#  10]+0.085*[#  20]+0.066*[#   5]
          +0.066*[#  15]+0.052*[#  21]+0.052*[#  25]
    |psi|^2 = 0.989
==== e(  23) =     6.63103 eV ==== 
     psi = 0.426*[#  23]+0.426*[#  27]+0.057*[#   9]+0.057*[#  19]+0.006*[#   6]
          +0.006*[#  16]
    |psi|^2 = 0.981
==== e(  24) =     6.63184 eV ==== 
     psi = 0.426*[#  24]+0.426*[#  28]+0.057*[#   8]+0.057*[#  18]+0.006*[#   7]
          +0.006*[#  17]
    |psi|^2 = 0.981
==== e(  25) =     7.20256 eV ==== 
     psi = 0.425*[#  24]+0.425*[#  28]+0.051*[#   8]+0.051*[#  18]+0.018*[#   7]
          +0.018*[#  17]
    |psi|^2 = 0.989
==== e(  26) =     7.20261 eV ==== 
     psi = 0.425*[#  23]+0.425*[#  27]+0.050*[#   9]+0.050*[#  19]+0.018*[#   6]
          +0.018*[#  16]
    |psi|^2 = 0.989
==== e(  27) =    11.90000 eV ==== 
     psi = 0.259*[#  10]+0.257*[#  20]+0.133*[#  26]+0.128*[#  22]+0.098*[#  21]
          +0.096*[#  25]+0.008*[#   5]+0.008*[#  15]
    |psi|^2 = 0.989
==== e(  28) =    14.51507 eV ==== 
     psi = 0.311*[#  20]+0.309*[#  10]+0.071*[#  22]+0.066*[#  26]+0.047*[#  25]
          +0.046*[#  21]
    |psi|^2 = 0.851

 k =  -0.2500000000  0.1443375673  0.0000000000
==== e(   1) =  -121.80324 eV ==== 
     psi = 0.497*[#  11]+0.497*[#   1]+0.001*[#  22]+0.001*[#  26]
    |psi|^2 = 1.000
==== e(   2) =  -121.67902 eV ==== 
     psi = 0.498*[#   1]+0.498*[#  11]
    |psi|^2 = 1.000
==== e(   3) =   -75.08813 eV ==== 
     psi = 0.287*[#  14]+0.286*[#   4]+0.193*[#  13]+0.192*[#   3]+0.021*[#   2]
          +0.021*[#  12]
    |psi|^2 = 1.000
==== e(   4) =   -75.08479 eV ==== 
     psi = 0.467*[#   2]+0.465*[#  12]+0.033*[#   4]+0.033*[#  14]
    |psi|^2 = 1.000
==== e(   5) =   -75.06350 eV ==== 
     psi = 0.382*[#   3]+0.382*[#  13]+0.108*[#  14]+0.108*[#   4]+0.010*[#   2]
          +0.010*[#  12]
    |psi|^2 = 1.000
==== e(   6) =   -75.05096 eV ==== 
     psi = 0.406*[#   4]+0.405*[#  14]+0.094*[#   3]+0.093*[#  13]
    |psi|^2 = 1.000
==== e(   7) =   -75.00797 eV ==== 
     psi = 0.325*[#   3]+0.325*[#  13]+0.164*[#   4]+0.163*[#  14]+0.010*[#   2]
          +0.010*[#  12]
    |psi|^2 = 1.000
==== e(   8) =   -74.92200 eV ==== 
     psi = 0.493*[#  12]+0.490*[#   2]+0.005*[#   3]+0.005*[#  13]+0.002*[#   4]
          +0.002*[#  14]
    |psi|^2 = 1.000
==== e(   9) =   -10.39286 eV ==== 
     psi = 0.373*[#  21]+0.373*[#  25]+0.116*[#  10]+0.116*[#  20]+0.005*[#   9]
          +0.005*[#  19]+0.002*[#   6]+0.002*[#  16]+0.002*[#   8]+0.002*[#  18]
          
    |psi|^2 = 0.998
==== e(  10) =    -9.96425 eV ==== 
     psi = 0.451*[#  21]+0.451*[#  25]+0.021*[#   5]+0.021*[#  15]+0.014*[#  10]
          +0.014*[#  20]+0.005*[#   9]+0.005*[#  19]+0.003*[#   6]+0.003*[#  16]
          +0.002*[#   8]+0.002*[#  18]+0.001*[#   7]+0.001*[#  17]
    |psi|^2 = 0.996
==== e(  11) =    -0.61901 eV ==== 
     psi = 0.150*[#   9]+0.150*[#  19]+0.116*[#   6]+0.116*[#  16]+0.056*[#  23]
          +0.056*[#  27]+0.049*[#   5]+0.049*[#  15]+0.048*[#   8]+0.048*[#  18]
          +0.038*[#   7]+0.038*[#  17]+0.018*[#  24]+0.018*[#  28]+0.014*[#  10]
          +0.014*[#  20]+0.010*[#  22]+0.010*[#  26]
    |psi|^2 = 0.999
==== e(  12) =    -0.45093 eV ==== 
     psi = 0.166*[#   7]+0.166*[#  17]+0.162*[#   8]+0.162*[#  18]+0.054*[#   9]
          +0.054*[#  19]+0.054*[#   6]+0.054*[#  16]+0.048*[#  24]+0.048*[#  28]
          +0.016*[#  23]+0.016*[#  27]
    |psi|^2 = 0.999
==== e(  13) =    -0.37638 eV ==== 
     psi = 0.183*[#   9]+0.183*[#  19]+0.177*[#   5]+0.177*[#  15]+0.063*[#   8]
          +0.063*[#  18]+0.036*[#  22]+0.036*[#  26]+0.023*[#  23]+0.023*[#  27]
          +0.008*[#  24]+0.008*[#  28]+0.008*[#  10]+0.008*[#  20]+0.002*[#   6]
          +0.002*[#  16]
    |psi|^2 = 0.999
==== e(  14) =    -0.22502 eV ==== 
     psi = 0.279*[#   8]+0.279*[#  18]+0.133*[#   9]+0.133*[#  19]+0.035*[#  24]
          +0.035*[#  28]+0.025*[#   7]+0.025*[#  17]+0.016*[#  23]+0.016*[#  27]
          +0.008*[#   6]+0.008*[#  16]+0.003*[#   5]+0.003*[#  15]
    |psi|^2 = 0.999
==== e(  15) =    -0.22096 eV ==== 
     psi = 0.214*[#   5]+0.214*[#  15]+0.133*[#   9]+0.133*[#  19]+0.087*[#   8]
          +0.087*[#  18]+0.024*[#  23]+0.024*[#  27]+0.023*[#  22]+0.023*[#  26]
          +0.013*[#  24]+0.013*[#  28]+0.003*[#  10]+0.003*[#  20]
    |psi|^2 = 0.999
==== e(  16) =     0.10133 eV ==== 
     psi = 0.254*[#   6]+0.254*[#  16]+0.090*[#   9]+0.090*[#  19]+0.084*[#   7]
          +0.084*[#  17]+0.036*[#   5]+0.036*[#  15]+0.029*[#   8]+0.029*[#  18]
          +0.005*[#  22]+0.005*[#  26]
    |psi|^2 = 0.998
==== e(  17) =     0.12892 eV ==== 
     psi = 0.252*[#   6]+0.252*[#  16]+0.103*[#   5]+0.103*[#  15]+0.084*[#   7]
          +0.084*[#  17]+0.025*[#   9]+0.025*[#  19]+0.020*[#  22]+0.020*[#  26]
          +0.009*[#   8]+0.009*[#  18]+0.004*[#  10]+0.004*[#  20]
    |psi|^2 = 0.995
==== e(  18) =     0.26140 eV ==== 
     psi = 0.189*[#   8]+0.189*[#  18]+0.186*[#   7]+0.186*[#  17]+0.063*[#   9]
          +0.063*[#  19]+0.061*[#   6]+0.061*[#  16]
    |psi|^2 = 0.999
==== e(  19) =     0.45005 eV ==== 
     psi = 0.348*[#   7]+0.348*[#  17]+0.116*[#   6]+0.116*[#  16]+0.027*[#   8]
          +0.027*[#  18]+0.009*[#   9]+0.009*[#  19]
    |psi|^2 = 1.000
==== e(  20) =     1.02001 eV ==== 
     psi = 0.331*[#   5]+0.331*[#  15]+0.075*[#   6]+0.075*[#  16]+0.028*[#  21]
          +0.028*[#  25]+0.026*[#   9]+0.026*[#  19]+0.025*[#   7]+0.025*[#  17]
          +0.009*[#   8]+0.009*[#  18]+0.002*[#  10]+0.002*[#  20]+0.001*[#  23]
          +0.001*[#  27]
    |psi|^2 = 0.995
==== e(  21) =     2.75298 eV ==== 
     psi = 0.355*[#  22]+0.355*[#  26]+0.084*[#  10]+0.084*[#  20]+0.019*[#   6]
          +0.019*[#  16]+0.010*[#  23]+0.010*[#  27]+0.007*[#   5]+0.007*[#  15]
          +0.006*[#   7]+0.006*[#  17]+0.003*[#  24]+0.003*[#  28]+0.002*[#   9]
          +0.002*[#  19]+0.001*[#  21]+0.001*[#  25]
    |psi|^2 = 0.976
==== e(  22) =     4.44984 eV ==== 
     psi = 0.248*[#  23]+0.248*[#  27]+0.082*[#  24]+0.082*[#  28]+0.053*[#   9]
          +0.053*[#  19]+0.041*[#  10]+0.041*[#  20]+0.018*[#   8]+0.018*[#  18]
          +0.018*[#  21]+0.018*[#  25]+0.012*[#  22]+0.012*[#  26]+0.003*[#   5]
          +0.003*[#  15]+0.002*[#   6]+0.002*[#  16]
    |psi|^2 = 0.960
==== e(  23) =     5.22525 eV ==== 
     psi = 0.223*[#  23]+0.223*[#  27]+0.073*[#  24]+0.073*[#  28]+0.060*[#  10]
          +0.060*[#  20]+0.041*[#   9]+0.041*[#  19]+0.033*[#  21]+0.033*[#  25]
          +0.022*[#   6]+0.022*[#  16]+0.016*[#  22]+0.016*[#  26]+0.013*[#   8]
          +0.013*[#  18]+0.007*[#   7]+0.007*[#  17]
    |psi|^2 = 0.980
==== e(  24) =     5.68846 eV ==== 
     psi = 0.325*[#  24]+0.325*[#  28]+0.107*[#  23]+0.107*[#  27]+0.035*[#   8]
          +0.035*[#  18]+0.011*[#   9]+0.011*[#  19]+0.004*[#   7]+0.004*[#  17]
          +0.001*[#   6]+0.001*[#  16]
    |psi|^2 = 0.968
==== e(  25) =     6.83634 eV ==== 
     psi = 0.425*[#  22]+0.425*[#  26]+0.052*[#   5]+0.052*[#  15]+0.004*[#   9]
          +0.004*[#  19]+0.003*[#   6]+0.003*[#  16]+0.002*[#  23]+0.002*[#  27]
          +0.001*[#   8]+0.001*[#  18]
    |psi|^2 = 0.981
==== e(  26) =     6.87948 eV ==== 
     psi = 0.322*[#  24]+0.322*[#  28]+0.107*[#  23]+0.107*[#  27]+0.026*[#   8]
          +0.026*[#  18]+0.022*[#   7]+0.022*[#  17]+0.009*[#   9]+0.009*[#  19]
          +0.007*[#   6]+0.007*[#  16]
    |psi|^2 = 0.985
==== e(  27) =    13.19746 eV ==== 
     psi = 0.277*[#  10]+0.277*[#  20]+0.095*[#  23]+0.095*[#  27]+0.075*[#  21]
          +0.075*[#  25]+0.032*[#  24]+0.032*[#  28]+0.001*[#   5]+0.001*[#  15]
          
    |psi|^2 = 0.964
==== e(  28) =    16.68409 eV ==== 
     psi = 0.310*[#  10]+0.310*[#  20]+0.042*[#  22]+0.042*[#  26]+0.034*[#  23]
          +0.034*[#  27]+0.013*[#  21]+0.013*[#  25]+0.011*[#  24]+0.011*[#  28]
          +0.002*[#   1]+0.002*[#  11]
    |psi|^2 = 0.825

 k =  -0.2500000000  0.1443375673 -0.1560513011
==== e(   1) =  -121.78728 eV ==== 
     psi = 0.499*[#   1]+0.496*[#  11]+0.001*[#  22]+0.001*[#  26]
    |psi|^2 = 1.000
==== e(   2) =  -121.69821 eV ==== 
     psi = 0.500*[#  11]+0.496*[#   1]
    |psi|^2 = 1.000
==== e(   3) =   -75.08303 eV ==== 
     psi = 0.491*[#  12]+0.373*[#   2]+0.109*[#   3]+0.013*[#  13]+0.012*[#   4]
          
    |psi|^2 = 1.000
==== e(   4) =   -75.07099 eV ==== 
     psi = 0.341*[#   4]+0.315*[#  14]+0.194*[#  13]+0.133*[#   3]+0.009*[#   2]
          +0.008*[#  12]
    |psi|^2 = 1.000
==== e(   5) =   -75.06223 eV ==== 
     psi = 0.372*[#  13]+0.294*[#   3]+0.149*[#   4]+0.097*[#  14]+0.075*[#   2]
          +0.012*[#  12]
    |psi|^2 = 1.000
==== e(   6) =   -75.05520 eV ==== 
     psi = 0.446*[#  14]+0.302*[#   4]+0.111*[#   2]+0.081*[#  13]+0.033*[#   3]
          +0.026*[#  12]
    |psi|^2 = 1.000
==== e(   7) =   -74.99292 eV ==== 
     psi = 0.350*[#   3]+0.206*[#  13]+0.166*[#   4]+0.108*[#  12]+0.088*[#  14]
          +0.081*[#   2]
    |psi|^2 = 1.000
==== e(   8) =   -74.90866 eV ==== 
     psi = 0.353*[#  12]+0.350*[#   2]+0.131*[#  13]+0.080*[#   3]+0.054*[#  14]
          +0.029*[#   4]
    |psi|^2 = 1.000
==== e(   9) =   -10.32333 eV ==== 
     psi = 0.385*[#  25]+0.383*[#  21]+0.104*[#  20]+0.102*[#  10]+0.005*[#   9]
          +0.005*[#  19]+0.002*[#   5]+0.002*[#   6]+0.002*[#  15]+0.002*[#  16]
          +0.002*[#   8]+0.002*[#  18]
    |psi|^2 = 0.998
==== e(  10) =   -10.01678 eV ==== 
     psi = 0.441*[#  21]+0.438*[#  25]+0.032*[#  10]+0.030*[#  20]+0.017*[#  15]
          +0.016*[#   5]+0.005*[#  19]+0.005*[#   9]+0.003*[#  16]+0.003*[#   6]
          +0.002*[#  18]+0.002*[#   8]
    |psi|^2 = 0.997
==== e(  11) =    -0.64028 eV ==== 
     psi = 0.162*[#  19]+0.130*[#  16]+0.120*[#   9]+0.090*[#   6]+0.082*[#  15]
          +0.052*[#  18]+0.050*[#  27]+0.049*[#  23]+0.044*[#   5]+0.043*[#  17]
          +0.039*[#   8]+0.034*[#  22]+0.029*[#   7]+0.027*[#  10]+0.016*[#  28]
          +0.016*[#  24]+0.010*[#  20]+0.004*[#  26]
    |psi|^2 = 0.999
==== e(  12) =    -0.44457 eV ==== 
     psi = 0.245*[#   5]+0.225*[#   9]+0.119*[#  15]+0.101*[#  19]+0.067*[#   8]
          +0.061*[#  26]+0.030*[#  27]+0.029*[#  18]+0.022*[#  16]+0.019*[#   6]
          +0.018*[#  22]+0.016*[#  20]+0.015*[#  23]+0.009*[#   7]+0.008*[#  28]
          +0.007*[#  17]+0.004*[#  24]+0.002*[#  10]
    |psi|^2 = 0.999
==== e(  13) =    -0.41360 eV ==== 
     psi = 0.192*[#  18]+0.168*[#   8]+0.155*[#   7]+0.149*[#  17]+0.059*[#  19]
          +0.053*[#   6]+0.049*[#  16]+0.049*[#  24]+0.048*[#   9]+0.048*[#  28]
          +0.015*[#  23]+0.014*[#  27]
    |psi|^2 = 0.999
==== e(  14) =    -0.27586 eV ==== 
     psi = 0.247*[#  15]+0.219*[#  19]+0.112*[#   9]+0.103*[#   5]+0.068*[#  18]
          +0.044*[#  23]+0.034*[#   8]+0.029*[#   6]+0.026*[#  16]+0.025*[#  27]
          +0.022*[#  22]+0.015*[#  26]+0.014*[#  24]+0.009*[#   7]+0.008*[#  20]
          +0.008*[#  17]+0.008*[#  28]+0.008*[#  10]
    |psi|^2 = 0.999
==== e(  15) =    -0.22986 eV ==== 
     psi = 0.290*[#   8]+0.257*[#  18]+0.092*[#   9]+0.079*[#  19]+0.073*[#  17]
          +0.055*[#   7]+0.043*[#  28]+0.041*[#  24]+0.024*[#  16]+0.018*[#   6]
          +0.014*[#  27]+0.013*[#  23]
    |psi|^2 = 0.999
==== e(  16) =    -0.04279 eV ==== 
     psi = 0.240*[#   5]+0.235*[#   6]+0.195*[#  15]+0.079*[#   7]+0.065*[#   9]
          +0.044*[#  22]+0.042*[#  26]+0.027*[#  16]+0.021*[#   8]+0.012*[#  20]
          +0.010*[#  10]+0.009*[#  17]+0.005*[#  19]+0.004*[#  27]+0.002*[#  23]
          +0.002*[#  18]+0.002*[#  28]+0.001*[#  21]
    |psi|^2 = 0.997
==== e(  17) =     0.28022 eV ==== 
     psi = 0.358*[#  16]+0.128*[#  19]+0.119*[#   6]+0.115*[#  17]+0.076*[#   9]
          +0.052*[#   5]+0.041*[#  18]+0.037*[#   7]+0.030*[#  15]+0.023*[#   8]
          +0.004*[#  20]+0.003*[#  22]+0.002*[#  21]+0.002*[#  26]+0.002*[#  27]
          +0.002*[#  23]+0.002*[#  10]
    |psi|^2 = 0.998
==== e(  18) =     0.30233 eV ==== 
     psi = 0.249*[#   7]+0.176*[#   8]+0.170*[#  18]+0.161*[#  17]+0.080*[#   6]
          +0.057*[#   9]+0.055*[#  19]+0.050*[#  16]
    |psi|^2 = 0.999
==== e(  19) =     0.39714 eV ==== 
     psi = 0.341*[#  17]+0.263*[#   7]+0.114*[#  16]+0.088*[#   6]+0.080*[#  18]
          +0.065*[#   8]+0.027*[#  19]+0.022*[#   9]
    |psi|^2 = 1.000
==== e(  20) =     0.77647 eV ==== 
     psi = 0.210*[#   6]+0.181*[#  15]+0.171*[#   5]+0.141*[#  16]+0.070*[#   7]
          +0.047*[#  17]+0.046*[#   9]+0.034*[#  19]+0.015*[#   8]+0.015*[#  22]
          +0.014*[#  25]+0.012*[#  26]+0.011*[#  18]+0.009*[#  21]+0.009*[#  10]
          +0.007*[#  20]+0.002*[#  23]
    |psi|^2 = 0.998
==== e(  21) =     3.39714 eV ==== 
     psi = 0.265*[#  22]+0.260*[#  26]+0.085*[#  20]+0.066*[#  10]+0.056*[#   5]
          +0.053*[#  15]+0.043*[#  23]+0.024*[#  21]+0.020*[#   9]+0.017*[#   6]
          +0.016*[#  25]+0.014*[#  24]+0.013*[#  27]+0.012*[#  16]+0.011*[#  19]
          +0.007*[#   8]+0.006*[#   7]+0.004*[#  28]+0.004*[#  17]+0.004*[#  18]
          
    |psi|^2 = 0.982
==== e(  22) =     4.59220 eV ==== 
     psi = 0.296*[#  27]+0.098*[#  28]+0.089*[#  23]+0.087*[#  26]+0.082*[#  10]
          +0.057*[#   9]+0.037*[#  25]+0.036*[#  20]+0.030*[#  24]+0.029*[#  21]
          +0.024*[#  15]+0.023*[#  19]+0.021*[#  16]+0.019*[#   8]+0.011*[#  22]
          +0.008*[#   5]+0.008*[#  18]+0.007*[#  17]+0.006*[#   6]+0.002*[#   7]
          
    |psi|^2 = 0.971
==== e(  23) =     5.14420 eV ==== 
     psi = 0.318*[#  23]+0.130*[#  22]+0.108*[#  27]+0.105*[#  24]+0.062*[#  19]
          +0.038*[#  20]+0.036*[#  28]+0.033*[#  26]+0.020*[#  18]+0.017*[#   6]
          +0.016*[#  10]+0.015*[#   5]+0.013*[#  21]+0.013*[#   9]+0.011*[#  25]
          +0.008*[#  16]+0.006*[#   7]+0.004*[#   8]+0.003*[#  17]+0.002*[#  15]
          
    |psi|^2 = 0.959
==== e(  24) =     5.88122 eV ==== 
     psi = 0.326*[#  24]+0.319*[#  28]+0.108*[#  23]+0.105*[#  27]+0.034*[#   8]
          +0.033*[#  18]+0.011*[#   9]+0.011*[#  19]+0.009*[#   7]+0.007*[#  17]
          +0.003*[#   6]+0.002*[#  16]
    |psi|^2 = 0.970
==== e(  25) =     6.67691 eV ==== 
     psi = 0.349*[#  26]+0.322*[#  22]+0.088*[#  27]+0.052*[#  23]+0.045*[#  15]
          +0.045*[#   5]+0.030*[#  28]+0.018*[#  24]+0.013*[#   9]+0.005*[#   8]
          +0.004*[#   6]+0.002*[#  16]+0.002*[#  19]+0.002*[#  20]+0.001*[#   7]
          
    |psi|^2 = 0.982
==== e(  26) =     6.71876 eV ==== 
     psi = 0.324*[#  28]+0.317*[#  24]+0.108*[#  27]+0.106*[#  23]+0.027*[#  18]
          +0.027*[#   8]+0.021*[#  17]+0.020*[#   7]+0.009*[#   9]+0.009*[#  19]
          +0.007*[#  16]+0.007*[#   6]
    |psi|^2 = 0.982
==== e(  27) =    13.58991 eV ==== 
     psi = 0.280*[#  20]+0.277*[#  10]+0.068*[#  23]+0.067*[#  21]+0.065*[#  25]
          +0.065*[#  27]+0.032*[#  26]+0.031*[#  22]+0.023*[#  24]+0.022*[#  28]
          
    |psi|^2 = 0.932
==== e(  28) =    15.96851 eV ==== 
     psi = 0.294*[#  20]+0.279*[#  10]+0.062*[#  26]+0.060*[#  22]+0.026*[#  27]
          +0.025*[#  23]+0.022*[#  21]+0.021*[#  25]+0.008*[#  28]+0.008*[#  24]
          +0.001*[#   1]+0.001*[#  11]
    |psi|^2 = 0.810

 k =  -0.2500000000  0.1443375673  0.3121026021
==== e(   1) =  -121.74386 eV ==== 
     psi = 0.996*[#  11]+0.001*[#  23]+0.001*[#  26]
    |psi|^2 = 1.000
==== e(   2) =  -121.74382 eV ==== 
     psi = 0.996*[#   1]+0.001*[#  27]+0.001*[#  22]
    |psi|^2 = 1.000
==== e(   3) =   -75.07640 eV ==== 
     psi = 0.513*[#   2]+0.420*[#  13]+0.032*[#  14]+0.031*[#   3]+0.003*[#   4]
          
    |psi|^2 = 1.000
==== e(   4) =   -75.07619 eV ==== 
     psi = 0.511*[#  12]+0.422*[#   3]+0.032*[#  13]+0.031*[#   4]+0.002*[#  14]
          
    |psi|^2 = 1.000
==== e(   5) =   -75.06068 eV ==== 
     psi = 0.785*[#  14]+0.174*[#  13]+0.026*[#   2]+0.011*[#   4]+0.002*[#   3]
          
    |psi|^2 = 1.000
==== e(   6) =   -75.06065 eV ==== 
     psi = 0.786*[#   4]+0.172*[#   3]+0.027*[#  12]+0.011*[#  14]+0.001*[#  13]
          
    |psi|^2 = 1.000
==== e(   7) =   -74.97955 eV ==== 
     psi = 0.457*[#   2]+0.347*[#  13]+0.155*[#  14]+0.025*[#   3]+0.014*[#   4]
          
    |psi|^2 = 1.000
==== e(   8) =   -74.97936 eV ==== 
     psi = 0.459*[#  12]+0.346*[#   3]+0.154*[#   4]+0.025*[#  13]+0.013*[#  14]
          
    |psi|^2 = 1.000
==== e(   9) =   -10.16178 eV ==== 
     psi = 0.693*[#  21]+0.137*[#  20]+0.129*[#  25]+0.014*[#   5]+0.008*[#  19]
          +0.004*[#  16]+0.003*[#  18]+0.002*[#  15]+0.001*[#   9]+0.001*[#  17]
          +0.001*[#   6]
    |psi|^2 = 0.998
==== e(  10) =   -10.16177 eV ==== 
     psi = 0.693*[#  25]+0.137*[#  10]+0.129*[#  21]+0.014*[#  15]+0.008*[#   9]
          +0.004*[#   6]+0.003*[#   8]+0.002*[#   5]+0.001*[#  19]+0.001*[#   7]
          +0.001*[#  16]
    |psi|^2 = 0.998
==== e(  11) =    -0.59984 eV ==== 
     psi = 0.228*[#  19]+0.162*[#   5]+0.133*[#   6]+0.074*[#  18]+0.070*[#  23]
          +0.056*[#  16]+0.052*[#   9]+0.048*[#  26]+0.045*[#  20]+0.044*[#   7]
          +0.023*[#  24]+0.019*[#  17]+0.017*[#   8]+0.016*[#  22]+0.008*[#  27]
          +0.003*[#  15]+0.002*[#  28]
    |psi|^2 = 0.999
==== e(  12) =    -0.59982 eV ==== 
     psi = 0.228*[#   9]+0.162*[#  15]+0.133*[#  16]+0.074*[#   8]+0.070*[#  27]
          +0.056*[#   6]+0.052*[#  19]+0.048*[#  22]+0.045*[#  10]+0.044*[#  17]
          +0.023*[#  28]+0.019*[#   7]+0.017*[#  18]+0.016*[#  26]+0.008*[#  23]
          +0.003*[#   5]+0.002*[#  24]
    |psi|^2 = 0.999
==== e(  13) =    -0.33859 eV ==== 
     psi = 0.257*[#   8]+0.230*[#   7]+0.170*[#  18]+0.086*[#   9]+0.079*[#   6]
          +0.058*[#  28]+0.056*[#  19]+0.031*[#  24]+0.020*[#  27]+0.011*[#  23]
          
    |psi|^2 = 0.999
==== e(  14) =    -0.33859 eV ==== 
     psi = 0.257*[#  18]+0.230*[#  17]+0.170*[#   8]+0.086*[#  19]+0.079*[#  16]
          +0.058*[#  24]+0.056*[#   9]+0.031*[#  28]+0.020*[#  23]+0.011*[#  27]
          
    |psi|^2 = 0.999
==== e(  15) =    -0.28346 eV ==== 
     psi = 0.537*[#   5]+0.142*[#  19]+0.050*[#  18]+0.048*[#  22]+0.042*[#   9]
          +0.035*[#   6]+0.029*[#  26]+0.024*[#  23]+0.017*[#  16]+0.017*[#  20]
          +0.015*[#   8]+0.014*[#   7]+0.009*[#  24]+0.008*[#  27]+0.006*[#  17]
          +0.003*[#  28]
    |psi|^2 = 0.999
==== e(  16) =    -0.28341 eV ==== 
     psi = 0.538*[#  15]+0.142*[#   9]+0.050*[#   8]+0.048*[#  26]+0.042*[#  19]
          +0.035*[#  16]+0.029*[#  22]+0.024*[#  27]+0.017*[#   6]+0.017*[#  10]
          +0.015*[#  18]+0.014*[#  17]+0.009*[#  28]+0.008*[#  23]+0.006*[#   7]
          +0.003*[#  24]
    |psi|^2 = 0.999
==== e(  17) =     0.35131 eV ==== 
     psi = 0.485*[#   7]+0.174*[#   8]+0.164*[#   6]+0.088*[#  18]+0.058*[#   9]
          +0.030*[#  19]
    |psi|^2 = 0.999
==== e(  18) =     0.35132 eV ==== 
     psi = 0.485*[#  17]+0.174*[#  18]+0.164*[#  16]+0.088*[#   8]+0.058*[#  19]
          +0.030*[#   9]
    |psi|^2 = 0.999
==== e(  19) =     0.45141 eV ==== 
     psi = 0.412*[#   6]+0.168*[#  19]+0.139*[#   7]+0.111*[#   5]+0.056*[#  18]
          +0.042*[#  16]+0.021*[#  15]+0.014*[#  17]+0.009*[#  20]+0.007*[#  26]
          +0.005*[#   9]+0.004*[#  21]+0.003*[#  25]+0.002*[#  27]+0.002*[#   8]
          
    |psi|^2 = 0.999
==== e(  20) =     0.45143 eV ==== 
     psi = 0.412*[#  16]+0.168*[#   9]+0.139*[#  17]+0.111*[#  15]+0.056*[#   8]
          +0.042*[#   6]+0.021*[#   5]+0.014*[#   7]+0.009*[#  10]+0.007*[#  22]
          +0.005*[#  19]+0.004*[#  25]+0.003*[#  21]+0.002*[#  23]+0.002*[#  18]
          
    |psi|^2 = 0.999
==== e(  21) =     4.17572 eV ==== 
     psi = 0.203*[#  22]+0.122*[#  27]+0.096*[#  20]+0.082*[#  23]+0.070*[#   5]
          +0.062*[#  26]+0.056*[#  10]+0.055*[#   9]+0.050*[#  25]+0.040*[#  28]
          +0.037*[#  16]+0.027*[#  24]+0.022*[#  21]+0.018*[#   8]+0.013*[#  15]
          +0.012*[#  17]+0.010*[#  19]+0.003*[#  18]+0.003*[#   6]+0.001*[#   7]
          
    |psi|^2 = 0.985
==== e(  22) =     4.17576 eV ==== 
     psi = 0.203*[#  26]+0.122*[#  23]+0.096*[#  10]+0.082*[#  27]+0.070*[#  15]
          +0.062*[#  22]+0.056*[#  20]+0.055*[#  19]+0.050*[#  21]+0.040*[#  24]
          +0.037*[#   6]+0.027*[#  28]+0.022*[#  25]+0.018*[#  18]+0.013*[#   5]
          +0.012*[#   7]+0.010*[#   9]+0.003*[#   8]+0.003*[#  16]+0.001*[#  17]
          
    |psi|^2 = 0.985
==== e(  23) =     5.91065 eV ==== 
     psi = 0.385*[#  22]+0.260*[#  27]+0.086*[#  28]+0.060*[#  23]+0.056*[#   5]
          +0.029*[#  26]+0.020*[#  24]+0.019*[#  19]+0.016*[#   9]+0.006*[#  15]
          +0.006*[#  18]+0.005*[#   8]+0.004*[#   6]+0.003*[#  20]+0.002*[#  16]
          +0.001*[#   7]+0.001*[#  25]
    |psi|^2 = 0.961
==== e(  24) =     5.91067 eV ==== 
     psi = 0.385*[#  26]+0.260*[#  23]+0.086*[#  24]+0.060*[#  27]+0.056*[#  15]
          +0.029*[#  22]+0.020*[#  28]+0.019*[#   9]+0.016*[#  19]+0.006*[#   5]
          +0.006*[#   8]+0.005*[#  18]+0.004*[#  16]+0.003*[#  10]+0.002*[#   6]
          +0.001*[#  17]+0.001*[#  21]
    |psi|^2 = 0.961
==== e(  25) =     6.30011 eV ==== 
     psi = 0.441*[#  24]+0.202*[#  28]+0.145*[#  23]+0.067*[#  27]+0.041*[#  18]
          +0.024*[#   7]+0.018*[#   8]+0.014*[#  19]+0.008*[#   6]+0.006*[#   9]
          +0.006*[#  17]+0.002*[#  16]
    |psi|^2 = 0.976
==== e(  26) =     6.30012 eV ==== 
     psi = 0.441*[#  28]+0.202*[#  24]+0.145*[#  27]+0.067*[#  23]+0.041*[#   8]
          +0.024*[#  17]+0.018*[#  18]+0.014*[#   9]+0.008*[#  16]+0.006*[#   7]
          +0.006*[#  19]+0.002*[#   6]
    |psi|^2 = 0.976
==== e(  27) =    14.64406 eV ==== 
     psi = 0.290*[#  20]+0.268*[#  10]+0.118*[#  26]+0.073*[#  21]+0.051*[#  23]
          +0.017*[#  24]+0.016*[#  22]+0.015*[#  27]+0.013*[#  25]+0.005*[#  28]
          
    |psi|^2 = 0.870
==== e(  28) =    14.70045 eV ==== 
     psi = 0.290*[#  10]+0.268*[#  20]+0.118*[#  22]+0.073*[#  25]+0.051*[#  27]
          +0.017*[#  28]+0.016*[#  26]+0.015*[#  23]+0.013*[#  21]+0.005*[#  24]
          
    |psi|^2 = 0.870

 k =  -0.2500000000  0.1443375673  0.1560513011
==== e(   1) =  -121.78728 eV ==== 
     psi = 0.500*[#  11]+0.495*[#   1]+0.001*[#  22]+0.001*[#  26]
    |psi|^2 = 1.000
==== e(   2) =  -121.69821 eV ==== 
     psi = 0.500*[#   1]+0.496*[#  11]
    |psi|^2 = 1.000
==== e(   3) =   -75.08308 eV ==== 
     psi = 0.495*[#   2]+0.368*[#  12]+0.111*[#  13]+0.013*[#   3]+0.012*[#  14]
          
    |psi|^2 = 1.000
==== e(   4) =   -75.07099 eV ==== 
     psi = 0.342*[#  14]+0.314*[#   4]+0.194*[#   3]+0.133*[#  13]+0.009*[#  12]
          +0.008*[#   2]
    |psi|^2 = 1.000
==== e(   5) =   -75.06220 eV ==== 
     psi = 0.372*[#   3]+0.292*[#  13]+0.151*[#  14]+0.098*[#   4]+0.075*[#  12]
          +0.011*[#   2]
    |psi|^2 = 1.000
==== e(   6) =   -75.05517 eV ==== 
     psi = 0.446*[#   4]+0.299*[#  14]+0.113*[#  12]+0.083*[#   3]+0.033*[#  13]
          +0.026*[#   2]
    |psi|^2 = 1.000
==== e(   7) =   -74.99293 eV ==== 
     psi = 0.351*[#  13]+0.206*[#   3]+0.166*[#  14]+0.107*[#   2]+0.087*[#   4]
          +0.081*[#  12]
    |psi|^2 = 1.000
==== e(   8) =   -74.90866 eV ==== 
     psi = 0.352*[#  12]+0.351*[#   2]+0.132*[#   3]+0.080*[#  13]+0.054*[#   4]
          +0.029*[#  14]
    |psi|^2 = 1.000
==== e(   9) =   -10.32333 eV ==== 
     psi = 0.385*[#  21]+0.383*[#  25]+0.104*[#  10]+0.102*[#  20]+0.005*[#  19]
          +0.005*[#   9]+0.002*[#  15]+0.002*[#  16]+0.002*[#   5]+0.002*[#   6]
          +0.002*[#  18]+0.002*[#   8]
    |psi|^2 = 0.998
==== e(  10) =   -10.01678 eV ==== 
     psi = 0.441*[#  25]+0.438*[#  21]+0.032*[#  20]+0.030*[#  10]+0.017*[#   5]
          +0.016*[#  15]+0.005*[#   9]+0.005*[#  19]+0.003*[#   6]+0.003*[#  16]
          +0.002*[#   8]+0.002*[#  18]
    |psi|^2 = 0.997
==== e(  11) =    -0.64029 eV ==== 
     psi = 0.162*[#   9]+0.130*[#   6]+0.120*[#  19]+0.090*[#  16]+0.082*[#   5]
          +0.052*[#   8]+0.050*[#  23]+0.049*[#  27]+0.044*[#  15]+0.043*[#   7]
          +0.039*[#  18]+0.034*[#  26]+0.029*[#  17]+0.027*[#  20]+0.016*[#  24]
          +0.016*[#  28]+0.010*[#  10]+0.004*[#  22]
    |psi|^2 = 0.999
==== e(  12) =    -0.44456 eV ==== 
     psi = 0.245*[#  15]+0.225*[#  19]+0.119*[#   5]+0.101*[#   9]+0.067*[#  18]
          +0.061*[#  22]+0.030*[#  23]+0.029*[#   8]+0.022*[#   6]+0.019*[#  16]
          +0.018*[#  26]+0.016*[#  10]+0.015*[#  27]+0.009*[#  17]+0.008*[#  24]
          +0.007*[#   7]+0.004*[#  28]+0.002*[#  20]
    |psi|^2 = 0.999
==== e(  13) =    -0.41360 eV ==== 
     psi = 0.192*[#   8]+0.168*[#  18]+0.155*[#  17]+0.149*[#   7]+0.059*[#   9]
          +0.053*[#  16]+0.049*[#   6]+0.049*[#  28]+0.048*[#  19]+0.048*[#  24]
          +0.015*[#  27]+0.014*[#  23]
    |psi|^2 = 0.999
==== e(  14) =    -0.27588 eV ==== 
     psi = 0.247*[#   5]+0.219*[#   9]+0.112*[#  19]+0.103*[#  15]+0.068*[#   8]
          +0.044*[#  27]+0.034*[#  18]+0.029*[#  16]+0.026*[#   6]+0.025*[#  23]
          +0.022*[#  26]+0.015*[#  22]+0.014*[#  28]+0.009*[#  17]+0.008*[#  10]
          +0.008*[#   7]+0.008*[#  24]+0.008*[#  20]
    |psi|^2 = 0.999
==== e(  15) =    -0.22986 eV ==== 
     psi = 0.290*[#  18]+0.257*[#   8]+0.092*[#  19]+0.079*[#   9]+0.073*[#   7]
          +0.055*[#  17]+0.043*[#  24]+0.041*[#  28]+0.024*[#   6]+0.018*[#  16]
          +0.014*[#  23]+0.013*[#  27]
    |psi|^2 = 0.999
==== e(  16) =    -0.04278 eV ==== 
     psi = 0.240*[#  15]+0.235*[#  16]+0.195*[#   5]+0.079*[#  17]+0.065*[#  19]
          +0.044*[#  26]+0.042*[#  22]+0.027*[#   6]+0.021*[#  18]+0.012*[#  10]
          +0.010*[#  20]+0.009*[#   7]+0.005*[#   9]+0.004*[#  23]+0.002*[#  27]
          +0.002*[#   8]+0.002*[#  24]+0.001*[#  25]
    |psi|^2 = 0.997
==== e(  17) =     0.28022 eV ==== 
     psi = 0.358*[#   6]+0.128*[#   9]+0.119*[#  16]+0.115*[#   7]+0.076*[#  19]
          +0.052*[#  15]+0.041*[#   8]+0.037*[#  17]+0.030*[#   5]+0.023*[#  18]
          +0.004*[#  10]+0.003*[#  26]+0.002*[#  25]+0.002*[#  22]+0.002*[#  23]
          +0.002*[#  27]+0.002*[#  20]
    |psi|^2 = 0.998
==== e(  18) =     0.30233 eV ==== 
     psi = 0.249*[#  17]+0.176*[#  18]+0.170*[#   8]+0.162*[#   7]+0.080*[#  16]
          +0.057*[#  19]+0.055*[#   9]+0.050*[#   6]
    |psi|^2 = 0.999
==== e(  19) =     0.39713 eV ==== 
     psi = 0.341*[#   7]+0.263*[#  17]+0.114*[#   6]+0.088*[#  16]+0.080*[#   8]
          +0.065*[#  18]+0.027*[#   9]+0.022*[#  19]
    |psi|^2 = 1.000
==== e(  20) =     0.77647 eV ==== 
     psi = 0.210*[#  16]+0.181*[#   5]+0.171*[#  15]+0.141*[#   6]+0.070*[#  17]
          +0.047*[#   7]+0.046*[#  19]+0.034*[#   9]+0.015*[#  18]+0.015*[#  26]
          +0.014*[#  21]+0.012*[#  22]+0.011*[#   8]+0.009*[#  25]+0.009*[#  20]
          +0.007*[#  10]+0.002*[#  27]
    |psi|^2 = 0.998
==== e(  21) =     3.39714 eV ==== 
     psi = 0.265*[#  26]+0.260*[#  22]+0.085*[#  10]+0.066*[#  20]+0.056*[#  15]
          +0.053*[#   5]+0.043*[#  27]+0.024*[#  25]+0.020*[#  19]+0.017*[#  16]
          +0.016*[#  21]+0.014*[#  28]+0.013*[#  23]+0.012*[#   6]+0.011*[#   9]
          +0.007*[#  18]+0.006*[#  17]+0.004*[#  24]+0.004*[#   7]+0.004*[#   8]
          
    |psi|^2 = 0.982
==== e(  22) =     4.59219 eV ==== 
     psi = 0.296*[#  23]+0.098*[#  24]+0.089*[#  27]+0.087*[#  22]+0.082*[#  20]
          +0.057*[#  19]+0.037*[#  21]+0.036*[#  10]+0.030*[#  28]+0.029*[#  25]
          +0.024*[#   5]+0.023*[#   9]+0.021*[#   6]+0.019*[#  18]+0.011*[#  26]
          +0.008*[#  15]+0.008*[#   8]+0.007*[#   7]+0.006*[#  16]+0.002*[#  17]
          
    |psi|^2 = 0.971
==== e(  23) =     5.14421 eV ==== 
     psi = 0.318*[#  27]+0.130*[#  26]+0.108*[#  23]+0.105*[#  28]+0.062*[#   9]
          +0.038*[#  10]+0.036*[#  24]+0.033*[#  22]+0.020*[#   8]+0.017*[#  16]
          +0.016*[#  20]+0.015*[#  15]+0.013*[#  25]+0.013*[#  19]+0.011*[#  21]
          +0.008*[#   6]+0.006*[#  17]+0.004*[#  18]+0.003*[#   7]+0.002*[#   5]
          
    |psi|^2 = 0.959
==== e(  24) =     5.88122 eV ==== 
     psi = 0.326*[#  28]+0.319*[#  24]+0.108*[#  27]+0.105*[#  23]+0.034*[#  18]
          +0.033*[#   8]+0.011*[#  19]+0.011*[#   9]+0.009*[#  17]+0.007*[#   7]
          +0.003*[#  16]+0.002*[#   6]
    |psi|^2 = 0.970
==== e(  25) =     6.67691 eV ==== 
     psi = 0.349*[#  22]+0.322*[#  26]+0.088*[#  23]+0.052*[#  27]+0.045*[#   5]
          +0.045*[#  15]+0.030*[#  24]+0.018*[#  28]+0.013*[#  19]+0.005*[#  18]
          +0.004*[#  16]+0.002*[#   6]+0.002*[#   9]+0.002*[#  10]+0.001*[#  17]
          
    |psi|^2 = 0.982
==== e(  26) =     6.71876 eV ==== 
     psi = 0.324*[#  24]+0.317*[#  28]+0.108*[#  23]+0.106*[#  27]+0.027*[#   8]
          +0.027*[#  18]+0.021*[#   7]+0.020*[#  17]+0.009*[#   9]+0.009*[#  19]
          +0.007*[#   6]+0.007*[#  16]
    |psi|^2 = 0.982
==== e(  27) =    13.57185 eV ==== 
     psi = 0.280*[#  10]+0.277*[#  20]+0.067*[#  27]+0.066*[#  21]+0.066*[#  25]
          +0.065*[#  23]+0.033*[#  26]+0.030*[#  22]+0.022*[#  28]+0.022*[#  24]
          
    |psi|^2 = 0.931
==== e(  28) =    15.98657 eV ==== 
     psi = 0.294*[#  10]+0.280*[#  20]+0.064*[#  22]+0.058*[#  26]+0.026*[#  27]
          +0.025*[#  23]+0.023*[#  25]+0.020*[#  21]+0.009*[#  28]+0.008*[#  24]
          +0.001*[#   1]+0.001*[#  11]
    |psi|^2 = 0.810

 k =   0.5000000000 -0.2886751346  0.0000000000
==== e(   1) =  -121.79028 eV ==== 
     psi = 0.497*[#  11]+0.496*[#   1]+0.001*[#  23]+0.001*[#  27]
    |psi|^2 = 1.000
==== e(   2) =  -121.75122 eV ==== 
     psi = 0.498*[#   1]+0.497*[#  11]+0.001*[#  23]+0.001*[#  27]
    |psi|^2 = 1.000
==== e(   3) =   -75.06190 eV ==== 
     psi = 0.338*[#  14]+0.337*[#   4]+0.162*[#  13]+0.162*[#   3]
    |psi|^2 = 1.000
==== e(   4) =   -75.05006 eV ==== 
     psi = 0.500*[#   2]+0.493*[#  12]+0.002*[#   3]+0.002*[#  13]
    |psi|^2 = 1.000
==== e(   5) =   -75.01454 eV ==== 
     psi = 0.260*[#   4]+0.260*[#  14]+0.237*[#   3]+0.236*[#  13]+0.003*[#   2]
          +0.003*[#  12]
    |psi|^2 = 1.000
==== e(   6) =   -74.99991 eV ==== 
     psi = 0.472*[#  12]+0.464*[#   2]+0.022*[#  13]+0.022*[#   3]+0.009*[#   4]
          +0.009*[#  14]
    |psi|^2 = 1.000
==== e(   7) =   -74.97427 eV ==== 
     psi = 0.261*[#  13]+0.261*[#   3]+0.238*[#  14]+0.238*[#   4]
    |psi|^2 = 1.000
==== e(   8) =   -74.91373 eV ==== 
     psi = 0.315*[#   3]+0.315*[#  13]+0.152*[#   4]+0.152*[#  14]+0.031*[#  12]
          +0.031*[#   2]
    |psi|^2 = 1.000
==== e(   9) =   -10.07074 eV ==== 
     psi = 0.430*[#  21]+0.429*[#  25]+0.044*[#  10]+0.044*[#  20]+0.011*[#   9]
          +0.011*[#  19]+0.004*[#   6]+0.004*[#  16]+0.004*[#   8]+0.004*[#  18]
          +0.003*[#   5]+0.003*[#  15]+0.001*[#   7]+0.001*[#  17]
    |psi|^2 = 0.997
==== e(  10) =    -9.86567 eV ==== 
     psi = 0.463*[#  21]+0.463*[#  25]+0.012*[#   5]+0.012*[#  15]+0.010*[#   9]
          +0.010*[#  19]+0.005*[#   6]+0.005*[#  16]+0.003*[#   8]+0.003*[#  18]
          +0.002*[#   7]+0.002*[#  17]
    |psi|^2 = 0.995
==== e(  11) =    -0.62151 eV ==== 
     psi = 0.179*[#   6]+0.179*[#  16]+0.080*[#   5]+0.080*[#  15]+0.068*[#   9]
          +0.068*[#  19]+0.060*[#   7]+0.060*[#  17]+0.041*[#  23]+0.041*[#  27]
          +0.028*[#  22]+0.028*[#  26]+0.023*[#   8]+0.023*[#  18]+0.013*[#  24]
          +0.013*[#  28]+0.006*[#  10]+0.006*[#  20]
    |psi|^2 = 0.999
==== e(  12) =    -0.34619 eV ==== 
     psi = 0.279*[#   7]+0.279*[#  17]+0.091*[#   6]+0.091*[#  16]+0.054*[#   8]
          +0.054*[#  18]+0.040*[#  24]+0.040*[#  28]+0.020*[#   9]+0.020*[#  19]
          +0.015*[#  23]+0.015*[#  27]
    |psi|^2 = 0.999
==== e(  13) =    -0.16680 eV ==== 
     psi = 0.228*[#   9]+0.228*[#  19]+0.092*[#   6]+0.092*[#  16]+0.079*[#   8]
          +0.079*[#  18]+0.031*[#  22]+0.031*[#  26]+0.028*[#   7]+0.028*[#  17]
          +0.017*[#  23]+0.017*[#  27]+0.013*[#  10]+0.013*[#  20]+0.006*[#  24]
          +0.006*[#  28]+0.002*[#  21]+0.002*[#  25]+0.001*[#   5]+0.001*[#  15]
          
    |psi|^2 = 0.996
==== e(  14) =     0.01825 eV ==== 
     psi = 0.294*[#   5]+0.294*[#  15]+0.122*[#   6]+0.122*[#  16]+0.042*[#   7]
          +0.042*[#  17]+0.015*[#   9]+0.015*[#  19]+0.014*[#  22]+0.014*[#  26]
          +0.006*[#   8]+0.006*[#  18]+0.003*[#  10]+0.003*[#  20]+0.003*[#  23]
          +0.003*[#  27]
    |psi|^2 = 0.998
==== e(  15) =     0.10414 eV ==== 
     psi = 0.276*[#   8]+0.277*[#  18]+0.093*[#   9]+0.093*[#  19]+0.070*[#   7]
          +0.070*[#  17]+0.026*[#  24]+0.026*[#  28]+0.025*[#   6]+0.025*[#  16]
          +0.009*[#  23]+0.009*[#  27]
    |psi|^2 = 0.999
==== e(  16) =     0.30047 eV ==== 
     psi = 0.281*[#   5]+0.281*[#  15]+0.113*[#   6]+0.113*[#  16]+0.047*[#   9]
          +0.047*[#  19]+0.037*[#   7]+0.037*[#  17]+0.016*[#   8]+0.016*[#  18]
          +0.005*[#  22]+0.005*[#  26]+0.001*[#  10]+0.001*[#  20]
    |psi|^2 = 0.998
==== e(  17) =     0.40851 eV ==== 
     psi = 0.305*[#   8]+0.305*[#  18]+0.104*[#   9]+0.104*[#  19]+0.069*[#   7]
          +0.068*[#  17]+0.022*[#   6]+0.022*[#  16]
    |psi|^2 = 1.000
==== e(  18) =     0.50582 eV ==== 
     psi = 0.295*[#   7]+0.295*[#  17]+0.099*[#   6]+0.099*[#  16]+0.078*[#   8]
          +0.078*[#  18]+0.027*[#   9]+0.027*[#  19]
    |psi|^2 = 1.000
==== e(  19) =     0.54625 eV ==== 
     psi = 0.161*[#   5]+0.161*[#  15]+0.149*[#   6]+0.149*[#  16]+0.051*[#   7]
          +0.051*[#  17]+0.049*[#  23]+0.049*[#  27]+0.022*[#   9]+0.022*[#  19]
          +0.017*[#  21]+0.017*[#  25]+0.017*[#  24]+0.017*[#  28]+0.014*[#  10]
          +0.014*[#  20]+0.009*[#  22]+0.009*[#  26]+0.008*[#   8]+0.008*[#  18]
          
    |psi|^2 = 0.991
==== e(  20) =     0.86145 eV ==== 
     psi = 0.269*[#   9]+0.269*[#  19]+0.091*[#   8]+0.091*[#  18]+0.086*[#   5]
          +0.086*[#  15]+0.021*[#   6]+0.021*[#  16]+0.019*[#  21]+0.019*[#  25]
          +0.007*[#   7]+0.007*[#  17]+0.003*[#  10]+0.003*[#  20]+0.001*[#  23]
          +0.001*[#  27]
    |psi|^2 = 0.996
==== e(  21) =     2.66725 eV ==== 
     psi = 0.218*[#  23]+0.218*[#  27]+0.083*[#  10]+0.083*[#  20]+0.072*[#  24]
          +0.072*[#  28]+0.045*[#   9]+0.045*[#  19]+0.034*[#   5]+0.034*[#  15]
          +0.015*[#   8]+0.015*[#  18]+0.013*[#  21]+0.013*[#  25]+0.009*[#   6]
          +0.009*[#  16]+0.003*[#   7]+0.003*[#  17]
    |psi|^2 = 0.986
==== e(  22) =     3.40844 eV ==== 
     psi = 0.219*[#  23]+0.219*[#  27]+0.089*[#  10]+0.089*[#  20]+0.071*[#  24]
          +0.071*[#  28]+0.054*[#  22]+0.054*[#  26]+0.031*[#   6]+0.031*[#  16]
          +0.013*[#  21]+0.013*[#  25]+0.011*[#   7]+0.011*[#  17]
    |psi|^2 = 0.981
==== e(  23) =     4.25873 eV ==== 
     psi = 0.404*[#  22]+0.404*[#  26]+0.025*[#  10]+0.025*[#  20]+0.019*[#   9]
          +0.019*[#  19]+0.010*[#   6]+0.010*[#  16]+0.009*[#   5]+0.009*[#  15]
          +0.006*[#   8]+0.006*[#  18]+0.003*[#   7]+0.003*[#  17]+0.002*[#  23]
          +0.002*[#  27]
    |psi|^2 = 0.955
==== e(  24) =     4.94596 eV ==== 
     psi = 0.336*[#  24]+0.336*[#  28]+0.110*[#  23]+0.110*[#  27]+0.018*[#   8]
          +0.018*[#  18]+0.008*[#   7]+0.008*[#  17]+0.006*[#   9]+0.006*[#  19]
          +0.003*[#   6]+0.003*[#  16]
    |psi|^2 = 0.962
==== e(  25) =     5.93104 eV ==== 
     psi = 0.374*[#  22]+0.374*[#  26]+0.033*[#   5]+0.033*[#  15]+0.026*[#  23]
          +0.026*[#  27]+0.015*[#   6]+0.015*[#  16]+0.008*[#  24]+0.008*[#  28]
          +0.007*[#   9]+0.007*[#  19]+0.005*[#   7]+0.005*[#  17]+0.002*[#   8]
          +0.002*[#  18]+0.001*[#  10]+0.001*[#  20]+0.001*[#  21]+0.001*[#  25]
          
    |psi|^2 = 0.951
==== e(  26) =     6.41973 eV ==== 
     psi = 0.326*[#  24]+0.326*[#  28]+0.108*[#  23]+0.108*[#  27]+0.029*[#   7]
          +0.029*[#  17]+0.012*[#   8]+0.012*[#  18]+0.010*[#   6]+0.010*[#  16]
          +0.004*[#   9]+0.004*[#  19]
    |psi|^2 = 0.980
==== e(  27) =    15.53892 eV ==== 
     psi = 0.320*[#  10]+0.320*[#  20]+0.065*[#  23]+0.065*[#  27]+0.035*[#  21]
          +0.035*[#  25]+0.022*[#  24]+0.022*[#  28]+0.001*[#  22]+0.001*[#  26]
          
    |psi|^2 = 0.890
==== e(  28) =    16.04929 eV ==== 
     psi = 0.013*[#  10]+0.013*[#  20]+0.011*[#  23]+0.011*[#  27]+0.004*[#  24]
          +0.004*[#  28]+0.002*[#  21]+0.002*[#  25]+0.001*[#   9]+0.001*[#  19]
          
    |psi|^2 = 0.061

 k =   0.5000000000 -0.2886751346 -0.1560513011
==== e(   1) =  -121.78667 eV ==== 
     psi = 0.497*[#  11]+0.496*[#   1]+0.001*[#  23]+0.001*[#  27]
    |psi|^2 = 1.000
==== e(   2) =  -121.76152 eV ==== 
     psi = 0.498*[#   1]+0.497*[#  11]+0.001*[#  23]+0.001*[#  27]
    |psi|^2 = 1.000
==== e(   3) =   -75.08914 eV ==== 
     psi = 0.449*[#   2]+0.441*[#  12]+0.048*[#  13]+0.047*[#   3]+0.007*[#   4]
          +0.007*[#  14]
    |psi|^2 = 1.000
==== e(   4) =   -75.07759 eV ==== 
     psi = 0.315*[#  14]+0.314*[#   4]+0.181*[#   3]+0.180*[#  13]+0.005*[#  12]
          +0.004*[#   2]
    |psi|^2 = 1.000
==== e(   5) =   -75.05229 eV ==== 
     psi = 0.406*[#  12]+0.400*[#   2]+0.054*[#  14]+0.050*[#   4]+0.047*[#   3]
          +0.042*[#  13]
    |psi|^2 = 1.000
==== e(   6) =   -75.05031 eV ==== 
     psi = 0.318*[#   4]+0.313*[#  14]+0.179*[#  13]+0.176*[#   3]+0.007*[#  12]
          +0.005*[#   2]
    |psi|^2 = 1.000
==== e(   7) =   -74.98465 eV ==== 
     psi = 0.274*[#  13]+0.274*[#   3]+0.177*[#  14]+0.177*[#   4]+0.048*[#  12]
          +0.048*[#   2]
    |psi|^2 = 1.000
==== e(   8) =   -74.92938 eV ==== 
     psi = 0.274*[#   3]+0.274*[#  13]+0.133*[#   4]+0.133*[#  14]+0.092*[#  12]
          +0.091*[#   2]
    |psi|^2 = 1.000
==== e(   9) =   -10.03353 eV ==== 
     psi = 0.438*[#  21]+0.438*[#  25]+0.035*[#  10]+0.035*[#  20]+0.011*[#   9]
          +0.011*[#  19]+0.005*[#   6]+0.005*[#  16]+0.004*[#   8]+0.004*[#  18]
          +0.003*[#   5]+0.003*[#  15]+0.002*[#   7]+0.002*[#  17]
    |psi|^2 = 0.996
==== e(  10) =    -9.88602 eV ==== 
     psi = 0.463*[#  21]+0.463*[#  25]+0.010*[#   9]+0.010*[#  19]+0.010*[#   5]
          +0.010*[#  15]+0.005*[#   6]+0.005*[#  16]+0.004*[#  10]+0.004*[#  20]
          +0.003*[#   8]+0.003*[#  18]+0.002*[#   7]+0.002*[#  17]
    |psi|^2 = 0.995
==== e(  11) =    -0.66671 eV ==== 
     psi = 0.155*[#   6]+0.155*[#  16]+0.097*[#   5]+0.097*[#  15]+0.075*[#   9]
          +0.075*[#  19]+0.052*[#   7]+0.052*[#  17]+0.038*[#  23]+0.038*[#  27]
          +0.034*[#  22]+0.034*[#  26]+0.025*[#   8]+0.025*[#  18]+0.012*[#  24]
          +0.012*[#  28]+0.010*[#  10]+0.010*[#  20]
    |psi|^2 = 0.999
==== e(  12) =    -0.40864 eV ==== 
     psi = 0.161*[#   9]+0.161*[#  19]+0.101*[#   6]+0.101*[#  16]+0.066*[#   5]
          +0.066*[#  15]+0.050*[#   8]+0.050*[#  18]+0.038*[#   7]+0.038*[#  17]
          +0.037*[#  22]+0.037*[#  26]+0.023*[#  23]+0.023*[#  27]+0.017*[#  10]
          +0.017*[#  20]+0.006*[#  24]+0.006*[#  28]
    |psi|^2 = 0.998
==== e(  13) =    -0.33391 eV ==== 
     psi = 0.264*[#   7]+0.264*[#  17]+0.093*[#   6]+0.093*[#  16]+0.070*[#   8]
          +0.070*[#  18]+0.040*[#  24]+0.040*[#  28]+0.019*[#   9]+0.019*[#  19]
          +0.013*[#  23]+0.013*[#  27]
    |psi|^2 = 0.999
==== e(  14) =    -0.03526 eV ==== 
     psi = 0.283*[#   5]+0.283*[#  15]+0.126*[#   6]+0.126*[#  16]+0.046*[#   7]
          +0.046*[#  17]+0.014*[#  22]+0.014*[#  26]+0.012*[#  23]+0.012*[#  27]
          +0.009*[#   8]+0.009*[#  18]+0.004*[#   9]+0.004*[#  19]+0.003*[#  10]
          +0.003*[#  20]+0.001*[#  24]+0.001*[#  28]
    |psi|^2 = 0.997
==== e(  15) =    -0.02177 eV ==== 
     psi = 0.207*[#   8]+0.207*[#  18]+0.128*[#   7]+0.128*[#  17]+0.074*[#   9]
          +0.074*[#  19]+0.047*[#   6]+0.047*[#  16]+0.031*[#  24]+0.031*[#  28]
          +0.008*[#  23]+0.008*[#  27]+0.003*[#   5]+0.003*[#  15]
    |psi|^2 = 0.999
==== e(  16) =     0.23321 eV ==== 
     psi = 0.279*[#   5]+0.279*[#  15]+0.110*[#   6]+0.110*[#  16]+0.037*[#   7]
          +0.037*[#  17]+0.025*[#   9]+0.025*[#  19]+0.018*[#  23]+0.018*[#  27]
          +0.013*[#  22]+0.013*[#  26]+0.008*[#   8]+0.008*[#  18]+0.006*[#  24]
          +0.006*[#  28]+0.002*[#  21]+0.002*[#  25]+0.002*[#  10]+0.002*[#  20]
          
    |psi|^2 = 0.999
==== e(  17) =     0.36133 eV ==== 
     psi = 0.294*[#   8]+0.294*[#  18]+0.100*[#   9]+0.100*[#  19]+0.078*[#   7]
          +0.078*[#  17]+0.026*[#   6]+0.026*[#  16]
    |psi|^2 = 1.000
==== e(  18) =     0.39295 eV ==== 
     psi = 0.230*[#   7]+0.230*[#  17]+0.144*[#   8]+0.144*[#  18]+0.077*[#   6]
          +0.077*[#  16]+0.049*[#   9]+0.049*[#  19]
    |psi|^2 = 1.000
==== e(  19) =     0.56192 eV ==== 
     psi = 0.130*[#   9]+0.130*[#  19]+0.117*[#   6]+0.117*[#  16]+0.105*[#   5]
          +0.105*[#  15]+0.045*[#   8]+0.045*[#  18]+0.040*[#   7]+0.040*[#  17]
          +0.021*[#  23]+0.021*[#  27]+0.021*[#  21]+0.021*[#  25]+0.007*[#  24]
          +0.007*[#  28]+0.005*[#  10]+0.005*[#  20]+0.003*[#  22]+0.003*[#  26]
          
    |psi|^2 = 0.986
==== e(  20) =     0.79017 eV ==== 
     psi = 0.268*[#   9]+0.267*[#  19]+0.091*[#   8]+0.091*[#  18]+0.074*[#   5]
          +0.074*[#  15]+0.032*[#   6]+0.032*[#  16]+0.020*[#  21]+0.020*[#  25]
          +0.010*[#   7]+0.010*[#  17]+0.002*[#  10]+0.002*[#  20]
    |psi|^2 = 0.994
==== e(  21) =     2.57307 eV ==== 
     psi = 0.195*[#  23]+0.195*[#  27]+0.092*[#  10]+0.092*[#  20]+0.065*[#  24]
          +0.065*[#  28]+0.036*[#  22]+0.036*[#  26]+0.035*[#   6]+0.035*[#   9]
          +0.035*[#  16]+0.035*[#  19]+0.012*[#   8]+0.012*[#  18]+0.012*[#   7]
          +0.012*[#  17]+0.010*[#   5]+0.010*[#  15]+0.003*[#  21]+0.003*[#  25]
          
    |psi|^2 = 0.988
==== e(  22) =     3.14868 eV ==== 
     psi = 0.200*[#  23]+0.200*[#  27]+0.090*[#  10]+0.090*[#  20]+0.066*[#  24]
          +0.066*[#  28]+0.059*[#  22]+0.059*[#  26]+0.044*[#   6]+0.044*[#  16]
          +0.015*[#   7]+0.015*[#  17]+0.008*[#  21]+0.008*[#  25]+0.005*[#   9]
          +0.005*[#  19]+0.002*[#   8]+0.002*[#  18]
    |psi|^2 = 0.981
==== e(  23) =     4.92109 eV ==== 
     psi = 0.359*[#  22]+0.358*[#  26]+0.037*[#  23]+0.037*[#  27]+0.029*[#   5]
          +0.029*[#  15]+0.017*[#  10]+0.017*[#  20]+0.014*[#   9]+0.014*[#  19]
          +0.012*[#  24]+0.012*[#  28]+0.005*[#   8]+0.005*[#  18]+0.003*[#  21]
          +0.003*[#  25]+0.002*[#   6]+0.002*[#  16]
    |psi|^2 = 0.960
==== e(  24) =     5.15213 eV ==== 
     psi = 0.333*[#  24]+0.333*[#  28]+0.109*[#  23]+0.109*[#  27]+0.016*[#   8]
          +0.016*[#  18]+0.013*[#   7]+0.013*[#  17]+0.005*[#   9]+0.005*[#  19]
          +0.004*[#   6]+0.004*[#  16]
    |psi|^2 = 0.964
==== e(  25) =     6.13711 eV ==== 
     psi = 0.359*[#  22]+0.359*[#  26]+0.049*[#  23]+0.049*[#  27]+0.036*[#   5]
          +0.036*[#  15]+0.016*[#  24]+0.016*[#  28]+0.009*[#   6]+0.009*[#  16]
          +0.007*[#   9]+0.007*[#  19]+0.003*[#   7]+0.003*[#  17]+0.002*[#   8]
          +0.002*[#  18]
    |psi|^2 = 0.968
==== e(  26) =     6.19429 eV ==== 
     psi = 0.326*[#  24]+0.326*[#  28]+0.108*[#  23]+0.108*[#  27]+0.028*[#   7]
          +0.028*[#  17]+0.013*[#   8]+0.013*[#  18]+0.009*[#   6]+0.009*[#  16]
          +0.004*[#   9]+0.004*[#  19]
    |psi|^2 = 0.976
==== e(  27) =    15.19300 eV ==== 
     psi = 0.217*[#  20]+0.215*[#  10]+0.031*[#  23]+0.030*[#  27]+0.025*[#  25]
          +0.024*[#  21]+0.010*[#  24]+0.010*[#  28]+0.002*[#  22]+0.002*[#  26]
          
    |psi|^2 = 0.572
==== e(  28) =    15.95043 eV ==== 
     psi = 0.035*[#  10]+0.033*[#  20]+0.008*[#  27]+0.008*[#  23]+0.006*[#  22]
          +0.006*[#  26]+0.004*[#  21]+0.003*[#  25]+0.003*[#  28]+0.003*[#  24]
          +0.001*[#   9]+0.001*[#  19]
    |psi|^2 = 0.114

 k =   0.5000000000 -0.2886751346  0.3121026021
==== e(   1) =  -121.77610 eV ==== 
     psi = 0.994*[#  11]+0.003*[#  23]
    |psi|^2 = 1.000
==== e(   2) =  -121.77606 eV ==== 
     psi = 0.994*[#   1]+0.003*[#  27]
    |psi|^2 = 1.000
==== e(   3) =   -75.08695 eV ==== 
     psi = 0.751*[#   2]+0.215*[#  13]+0.016*[#  14]+0.012*[#   3]+0.004*[#   4]
          
    |psi|^2 = 1.000
==== e(   4) =   -75.08665 eV ==== 
     psi = 0.750*[#  12]+0.216*[#   3]+0.016*[#   4]+0.012*[#  13]+0.004*[#  14]
          
    |psi|^2 = 1.000
==== e(   5) =   -75.05518 eV ==== 
     psi = 0.718*[#  14]+0.257*[#  13]+0.020*[#   2]+0.003*[#   4]+0.001*[#  24]
          
    |psi|^2 = 1.000
==== e(   6) =   -75.05516 eV ==== 
     psi = 0.719*[#   4]+0.256*[#   3]+0.020*[#  12]+0.003*[#  14]+0.001*[#  28]
          
    |psi|^2 = 1.000
==== e(   7) =   -74.92868 eV ==== 
     psi = 0.488*[#  13]+0.237*[#  14]+0.227*[#   2]+0.026*[#   3]+0.019*[#   4]
          +0.001*[#  21]
    |psi|^2 = 1.000
==== e(   8) =   -74.92858 eV ==== 
     psi = 0.487*[#   3]+0.237*[#   4]+0.228*[#  12]+0.026*[#  13]+0.019*[#  14]
          +0.001*[#  25]
    |psi|^2 = 1.000
==== e(   9) =    -9.94852 eV ==== 
     psi = 0.878*[#  21]+0.030*[#  25]+0.025*[#  20]+0.021*[#  19]+0.010*[#   5]
          +0.009*[#  16]+0.008*[#  10]+0.007*[#  18]+0.003*[#  17]
    |psi|^2 = 0.995
==== e(  10) =    -9.94851 eV ==== 
     psi = 0.878*[#  25]+0.030*[#  21]+0.025*[#  10]+0.021*[#   9]+0.010*[#  15]
          +0.009*[#   6]+0.008*[#  20]+0.007*[#   8]+0.003*[#   7]
    |psi|^2 = 0.995
==== e(  11) =    -0.60693 eV ==== 
     psi = 0.219*[#   5]+0.161*[#   6]+0.144*[#  19]+0.068*[#  16]+0.060*[#   9]
          +0.054*[#   7]+0.052*[#  23]+0.048*[#  18]+0.045*[#  26]+0.040*[#  22]
          +0.035*[#  20]+0.024*[#  17]+0.020*[#   8]+0.017*[#  24]+0.005*[#  15]
          +0.004*[#  27]+0.001*[#  28]
    |psi|^2 = 0.999
==== e(  12) =    -0.60691 eV ==== 
     psi = 0.219*[#  15]+0.161*[#  16]+0.144*[#   9]+0.068*[#   6]+0.060*[#  19]
          +0.054*[#  17]+0.052*[#  27]+0.048*[#   8]+0.045*[#  22]+0.040*[#  26]
          +0.035*[#  10]+0.024*[#   7]+0.020*[#  18]+0.017*[#  28]+0.005*[#   5]
          +0.004*[#  23]+0.001*[#  24]
    |psi|^2 = 0.999
==== e(  13) =    -0.17121 eV ==== 
     psi = 0.446*[#   7]+0.167*[#   8]+0.151*[#   6]+0.062*[#  18]+0.056*[#  28]
          +0.055*[#   9]+0.020*[#  19]+0.020*[#  27]+0.016*[#  24]+0.006*[#  23]
          
    |psi|^2 = 0.999
==== e(  14) =    -0.17120 eV ==== 
     psi = 0.446*[#  17]+0.167*[#  18]+0.151*[#  16]+0.062*[#   8]+0.056*[#  24]
          +0.055*[#  19]+0.020*[#   9]+0.020*[#  23]+0.016*[#  28]+0.006*[#  27]
          
    |psi|^2 = 0.999
==== e(  15) =     0.06262 eV ==== 
     psi = 0.525*[#   5]+0.142*[#  16]+0.125*[#   6]+0.045*[#  17]+0.045*[#   7]
          +0.037*[#  23]+0.026*[#  22]+0.013*[#  24]+0.012*[#  27]+0.006*[#  20]
          +0.005*[#  19]+0.004*[#  28]+0.004*[#  25]+0.002*[#   9]+0.001*[#  18]
          +0.001*[#  26]
    |psi|^2 = 0.996
==== e(  16) =     0.06267 eV ==== 
     psi = 0.525*[#  15]+0.142*[#   6]+0.125*[#  16]+0.045*[#   7]+0.045*[#  17]
          +0.037*[#  27]+0.026*[#  26]+0.013*[#  28]+0.012*[#  23]+0.006*[#  10]
          +0.005*[#   9]+0.004*[#  24]+0.004*[#  21]+0.002*[#  19]+0.001*[#   8]
          +0.001*[#  22]
    |psi|^2 = 0.996
==== e(  17) =     0.38948 eV ==== 
     psi = 0.344*[#   8]+0.256*[#   7]+0.146*[#  18]+0.117*[#   9]+0.086*[#   6]
          +0.050*[#  19]
    |psi|^2 = 1.000
==== e(  18) =     0.38948 eV ==== 
     psi = 0.344*[#  18]+0.256*[#  17]+0.146*[#   8]+0.117*[#  19]+0.086*[#  16]
          +0.050*[#   9]
    |psi|^2 = 1.000
==== e(  19) =     0.71010 eV ==== 
     psi = 0.415*[#  19]+0.156*[#   5]+0.141*[#  18]+0.069*[#  16]+0.053*[#   6]
          +0.048*[#   9]+0.040*[#  21]+0.023*[#  17]+0.018*[#   7]+0.016*[#   8]
          +0.003*[#  25]+0.002*[#  27]+0.001*[#  23]
    |psi|^2 = 0.989
==== e(  20) =     0.71012 eV ==== 
     psi = 0.415*[#   9]+0.156*[#  15]+0.141*[#   8]+0.069*[#   6]+0.053*[#  16]
          +0.048*[#  19]+0.040*[#  25]+0.023*[#   7]+0.018*[#  17]+0.016*[#  18]
          +0.003*[#  21]+0.002*[#  23]+0.001*[#  27]
    |psi|^2 = 0.989
==== e(  21) =     2.76707 eV ==== 
     psi = 0.207*[#  23]+0.165*[#  27]+0.111*[#  10]+0.101*[#   6]+0.086*[#  22]
          +0.078*[#  20]+0.068*[#  24]+0.055*[#  28]+0.034*[#   7]+0.027*[#   9]
          +0.017*[#  26]+0.015*[#  16]+0.009*[#   8]+0.005*[#  17]+0.004*[#  19]
          +0.002*[#   5]+0.001*[#  18]
    |psi|^2 = 0.987
==== e(  22) =     2.76708 eV ==== 
     psi = 0.207*[#  27]+0.165*[#  23]+0.111*[#  20]+0.101*[#  16]+0.086*[#  26]
          +0.078*[#  10]+0.068*[#  28]+0.055*[#  24]+0.034*[#  17]+0.027*[#  19]
          +0.017*[#  22]+0.015*[#   6]+0.009*[#  18]+0.005*[#   7]+0.004*[#   9]
          +0.002*[#  15]+0.001*[#   8]
    |psi|^2 = 0.987
==== e(  23) =     5.68043 eV ==== 
     psi = 0.452*[#  24]+0.201*[#  28]+0.151*[#  23]+0.068*[#  27]+0.034*[#   7]
          +0.020*[#  18]+0.011*[#   6]+0.010*[#  17]+0.008*[#   8]+0.007*[#  19]
          +0.003*[#  16]+0.003*[#   9]
    |psi|^2 = 0.969
==== e(  24) =     5.68043 eV ==== 
     psi = 0.452*[#  28]+0.201*[#  24]+0.151*[#  27]+0.068*[#  23]+0.034*[#  17]
          +0.020*[#   8]+0.011*[#  16]+0.010*[#   7]+0.008*[#  18]+0.007*[#   9]
          +0.003*[#   6]+0.003*[#  19]
    |psi|^2 = 0.969
==== e(  25) =     5.90014 eV ==== 
     psi = 0.682*[#  22]+0.120*[#  27]+0.073*[#   5]+0.043*[#  28]+0.016*[#  19]
          +0.010*[#  20]+0.006*[#  26]+0.005*[#  18]+0.004*[#  15]+0.003*[#  25]
          +0.003*[#   9]+0.002*[#   6]+0.002*[#  10]+0.001*[#   8]
    |psi|^2 = 0.975
==== e(  26) =     5.90018 eV ==== 
     psi = 0.682*[#  26]+0.120*[#  23]+0.073*[#  15]+0.043*[#  24]+0.016*[#   9]
          +0.010*[#  10]+0.006*[#  22]+0.005*[#   8]+0.004*[#   5]+0.003*[#  21]
          +0.003*[#  19]+0.002*[#  16]+0.002*[#  20]+0.001*[#  18]
    |psi|^2 = 0.975
==== e(  27) =    15.30653 eV ==== 
     psi = 0.113*[#  10]+0.091*[#  20]+0.022*[#  21]+0.015*[#  26]+0.010*[#  27]
          +0.003*[#  28]+0.003*[#  22]+0.002*[#  19]+0.002*[#  23]+0.001*[#   5]
          
    |psi|^2 = 0.266
==== e(  28) =    15.38987 eV ==== 
     psi = 0.113*[#  20]+0.091*[#  10]+0.022*[#  25]+0.015*[#  22]+0.010*[#  23]
          +0.003*[#  24]+0.003*[#  26]+0.002*[#   9]+0.002*[#  27]+0.001*[#  15]
          
    |psi|^2 = 0.266

 k =   0.5000000000 -0.2886751346  0.1560513011
==== e(   1) =  -121.78667 eV ==== 
     psi = 0.497*[#  11]+0.496*[#   1]+0.001*[#  23]+0.001*[#  27]
    |psi|^2 = 1.000
==== e(   2) =  -121.76152 eV ==== 
     psi = 0.498*[#   1]+0.497*[#  11]+0.001*[#  23]+0.001*[#  27]
    |psi|^2 = 1.000
==== e(   3) =   -75.08914 eV ==== 
     psi = 0.449*[#   2]+0.441*[#  12]+0.048*[#  13]+0.047*[#   3]+0.007*[#   4]
          +0.007*[#  14]
    |psi|^2 = 1.000
==== e(   4) =   -75.07759 eV ==== 
     psi = 0.315*[#  14]+0.314*[#   4]+0.181*[#   3]+0.180*[#  13]+0.005*[#  12]
          +0.004*[#   2]
    |psi|^2 = 1.000
==== e(   5) =   -75.05229 eV ==== 
     psi = 0.406*[#  12]+0.400*[#   2]+0.054*[#  14]+0.050*[#   4]+0.047*[#   3]
          +0.042*[#  13]
    |psi|^2 = 1.000
==== e(   6) =   -75.05031 eV ==== 
     psi = 0.318*[#   4]+0.313*[#  14]+0.179*[#  13]+0.176*[#   3]+0.007*[#  12]
          +0.005*[#   2]
    |psi|^2 = 1.000
==== e(   7) =   -74.98465 eV ==== 
     psi = 0.274*[#  13]+0.274*[#   3]+0.177*[#  14]+0.177*[#   4]+0.048*[#  12]
          +0.048*[#   2]
    |psi|^2 = 1.000
==== e(   8) =   -74.92938 eV ==== 
     psi = 0.274*[#   3]+0.274*[#  13]+0.133*[#   4]+0.133*[#  14]+0.092*[#  12]
          +0.091*[#   2]
    |psi|^2 = 1.000
==== e(   9) =   -10.03353 eV ==== 
     psi = 0.438*[#  21]+0.438*[#  25]+0.035*[#  10]+0.035*[#  20]+0.011*[#   9]
          +0.011*[#  19]+0.005*[#   6]+0.005*[#  16]+0.004*[#   8]+0.004*[#  18]
          +0.003*[#   5]+0.003*[#  15]+0.002*[#   7]+0.002*[#  17]
    |psi|^2 = 0.996
==== e(  10) =    -9.88602 eV ==== 
     psi = 0.463*[#  21]+0.463*[#  25]+0.010*[#   9]+0.010*[#  19]+0.010*[#   5]
          +0.010*[#  15]+0.005*[#   6]+0.005*[#  16]+0.004*[#  10]+0.004*[#  20]
          +0.003*[#   8]+0.003*[#  18]+0.002*[#   7]+0.002*[#  17]
    |psi|^2 = 0.995
==== e(  11) =    -0.66671 eV ==== 
     psi = 0.155*[#   6]+0.155*[#  16]+0.097*[#   5]+0.097*[#  15]+0.075*[#   9]
          +0.075*[#  19]+0.052*[#   7]+0.052*[#  17]+0.038*[#  23]+0.038*[#  27]
          +0.034*[#  22]+0.034*[#  26]+0.025*[#   8]+0.025*[#  18]+0.012*[#  24]
          +0.012*[#  28]+0.010*[#  10]+0.010*[#  20]
    |psi|^2 = 0.999
==== e(  12) =    -0.40864 eV ==== 
     psi = 0.161*[#   9]+0.161*[#  19]+0.101*[#   6]+0.101*[#  16]+0.066*[#   5]
          +0.066*[#  15]+0.050*[#   8]+0.050*[#  18]+0.038*[#   7]+0.038*[#  17]
          +0.037*[#  22]+0.037*[#  26]+0.023*[#  23]+0.023*[#  27]+0.017*[#  10]
          +0.017*[#  20]+0.006*[#  24]+0.006*[#  28]
    |psi|^2 = 0.998
==== e(  13) =    -0.33391 eV ==== 
     psi = 0.264*[#   7]+0.264*[#  17]+0.093*[#   6]+0.093*[#  16]+0.070*[#   8]
          +0.070*[#  18]+0.040*[#  24]+0.040*[#  28]+0.019*[#   9]+0.019*[#  19]
          +0.013*[#  23]+0.013*[#  27]
    |psi|^2 = 0.999
==== e(  14) =    -0.03526 eV ==== 
     psi = 0.283*[#   5]+0.283*[#  15]+0.126*[#   6]+0.126*[#  16]+0.046*[#   7]
          +0.046*[#  17]+0.014*[#  22]+0.014*[#  26]+0.012*[#  23]+0.012*[#  27]
          +0.009*[#   8]+0.009*[#  18]+0.004*[#   9]+0.004*[#  19]+0.003*[#  10]
          +0.003*[#  20]+0.001*[#  24]+0.001*[#  28]
    |psi|^2 = 0.997
==== e(  15) =    -0.02177 eV ==== 
     psi = 0.207*[#   8]+0.207*[#  18]+0.128*[#   7]+0.128*[#  17]+0.074*[#   9]
          +0.074*[#  19]+0.047*[#   6]+0.047*[#  16]+0.031*[#  24]+0.031*[#  28]
          +0.008*[#  23]+0.008*[#  27]+0.003*[#   5]+0.003*[#  15]
    |psi|^2 = 0.999
==== e(  16) =     0.23321 eV ==== 
     psi = 0.279*[#   5]+0.279*[#  15]+0.110*[#   6]+0.110*[#  16]+0.037*[#   7]
          +0.037*[#  17]+0.025*[#   9]+0.025*[#  19]+0.018*[#  23]+0.018*[#  27]
          +0.013*[#  22]+0.013*[#  26]+0.008*[#   8]+0.008*[#  18]+0.006*[#  24]
          +0.006*[#  28]+0.002*[#  21]+0.002*[#  25]+0.002*[#  10]+0.002*[#  20]
          
    |psi|^2 = 0.999
==== e(  17) =     0.36133 eV ==== 
     psi = 0.294*[#   8]+0.294*[#  18]+0.100*[#   9]+0.100*[#  19]+0.078*[#   7]
          +0.078*[#  17]+0.026*[#   6]+0.026*[#  16]
    |psi|^2 = 1.000
==== e(  18) =     0.39295 eV ==== 
     psi = 0.230*[#   7]+0.230*[#  17]+0.144*[#   8]+0.144*[#  18]+0.077*[#   6]
          +0.077*[#  16]+0.049*[#   9]+0.049*[#  19]
    |psi|^2 = 1.000
==== e(  19) =     0.56192 eV ==== 
     psi = 0.130*[#   9]+0.130*[#  19]+0.117*[#   6]+0.117*[#  16]+0.105*[#   5]
          +0.105*[#  15]+0.045*[#   8]+0.045*[#  18]+0.040*[#   7]+0.040*[#  17]
          +0.021*[#  23]+0.021*[#  27]+0.021*[#  21]+0.021*[#  25]+0.007*[#  24]
          +0.007*[#  28]+0.005*[#  10]+0.005*[#  20]+0.003*[#  22]+0.003*[#  26]
          
    |psi|^2 = 0.986
==== e(  20) =     0.79017 eV ==== 
     psi = 0.268*[#   9]+0.267*[#  19]+0.091*[#   8]+0.091*[#  18]+0.074*[#   5]
          +0.074*[#  15]+0.032*[#   6]+0.032*[#  16]+0.020*[#  21]+0.020*[#  25]
          +0.010*[#   7]+0.010*[#  17]+0.002*[#  10]+0.002*[#  20]
    |psi|^2 = 0.994
==== e(  21) =     2.57307 eV ==== 
     psi = 0.195*[#  23]+0.195*[#  27]+0.092*[#  10]+0.092*[#  20]+0.065*[#  24]
          +0.065*[#  28]+0.036*[#  22]+0.036*[#  26]+0.035*[#   6]+0.035*[#   9]
          +0.035*[#  16]+0.035*[#  19]+0.012*[#   8]+0.012*[#  18]+0.012*[#   7]
          +0.012*[#  17]+0.010*[#   5]+0.010*[#  15]+0.003*[#  21]+0.003*[#  25]
          
    |psi|^2 = 0.988
==== e(  22) =     3.14868 eV ==== 
     psi = 0.200*[#  23]+0.200*[#  27]+0.090*[#  10]+0.090*[#  20]+0.066*[#  24]
          +0.066*[#  28]+0.059*[#  22]+0.059*[#  26]+0.044*[#   6]+0.044*[#  16]
          +0.015*[#   7]+0.015*[#  17]+0.008*[#  21]+0.008*[#  25]+0.005*[#   9]
          +0.005*[#  19]+0.002*[#   8]+0.002*[#  18]
    |psi|^2 = 0.981
==== e(  23) =     4.92109 eV ==== 
     psi = 0.359*[#  22]+0.358*[#  26]+0.037*[#  23]+0.037*[#  27]+0.029*[#   5]
          +0.029*[#  15]+0.017*[#  10]+0.017*[#  20]+0.014*[#   9]+0.014*[#  19]
          +0.012*[#  24]+0.012*[#  28]+0.005*[#   8]+0.005*[#  18]+0.003*[#  21]
          +0.003*[#  25]+0.002*[#   6]+0.002*[#  16]
    |psi|^2 = 0.960
==== e(  24) =     5.15213 eV ==== 
     psi = 0.333*[#  24]+0.333*[#  28]+0.109*[#  23]+0.109*[#  27]+0.016*[#   8]
          +0.016*[#  18]+0.013*[#   7]+0.013*[#  17]+0.005*[#   9]+0.005*[#  19]
          +0.004*[#   6]+0.004*[#  16]
    |psi|^2 = 0.964
==== e(  25) =     6.13711 eV ==== 
     psi = 0.359*[#  22]+0.359*[#  26]+0.049*[#  23]+0.049*[#  27]+0.036*[#   5]
          +0.036*[#  15]+0.016*[#  24]+0.016*[#  28]+0.009*[#   6]+0.009*[#  16]
          +0.007*[#   9]+0.007*[#  19]+0.003*[#   7]+0.003*[#  17]+0.002*[#   8]
          +0.002*[#  18]
    |psi|^2 = 0.968
==== e(  26) =     6.19429 eV ==== 
     psi = 0.326*[#  24]+0.326*[#  28]+0.108*[#  23]+0.108*[#  27]+0.028*[#   7]
          +0.028*[#  17]+0.013*[#   8]+0.013*[#  18]+0.009*[#   6]+0.009*[#  16]
          +0.004*[#   9]+0.004*[#  19]
    |psi|^2 = 0.976
==== e(  27) =    15.19300 eV ==== 
     psi = 0.217*[#  20]+0.215*[#  10]+0.031*[#  23]+0.030*[#  27]+0.025*[#  25]
          +0.024*[#  21]+0.010*[#  24]+0.010*[#  28]+0.002*[#  22]+0.002*[#  26]
          
    |psi|^2 = 0.572
==== e(  28) =    15.95043 eV ==== 
     psi = 0.035*[#  10]+0.033*[#  20]+0.008*[#  27]+0.008*[#  23]+0.006*[#  22]
          +0.006*[#  26]+0.004*[#  21]+0.003*[#  25]+0.003*[#  28]+0.003*[#  24]
          +0.001*[#   9]+0.001*[#  19]
    |psi|^2 = 0.114

 k =   0.2500000000 -0.1443375673  0.0000000000
==== e(   1) =  -121.80324 eV ==== 
     psi = 0.497*[#  11]+0.497*[#   1]+0.001*[#  22]+0.001*[#  26]
    |psi|^2 = 1.000
==== e(   2) =  -121.67902 eV ==== 
     psi = 0.498*[#   1]+0.498*[#  11]
    |psi|^2 = 1.000
==== e(   3) =   -75.08813 eV ==== 
     psi = 0.287*[#  14]+0.286*[#   4]+0.193*[#  13]+0.192*[#   3]+0.021*[#   2]
          +0.021*[#  12]
    |psi|^2 = 1.000
==== e(   4) =   -75.08479 eV ==== 
     psi = 0.467*[#   2]+0.465*[#  12]+0.033*[#   4]+0.033*[#  14]
    |psi|^2 = 1.000
==== e(   5) =   -75.06350 eV ==== 
     psi = 0.382*[#   3]+0.382*[#  13]+0.108*[#  14]+0.108*[#   4]+0.010*[#   2]
          +0.010*[#  12]
    |psi|^2 = 1.000
==== e(   6) =   -75.05096 eV ==== 
     psi = 0.406*[#   4]+0.405*[#  14]+0.094*[#   3]+0.093*[#  13]
    |psi|^2 = 1.000
==== e(   7) =   -75.00797 eV ==== 
     psi = 0.325*[#   3]+0.325*[#  13]+0.164*[#   4]+0.163*[#  14]+0.010*[#   2]
          +0.010*[#  12]
    |psi|^2 = 1.000
==== e(   8) =   -74.92200 eV ==== 
     psi = 0.493*[#  12]+0.490*[#   2]+0.005*[#   3]+0.005*[#  13]+0.002*[#   4]
          +0.002*[#  14]
    |psi|^2 = 1.000
==== e(   9) =   -10.39286 eV ==== 
     psi = 0.373*[#  21]+0.373*[#  25]+0.116*[#  10]+0.116*[#  20]+0.005*[#   9]
          +0.005*[#  19]+0.002*[#   6]+0.002*[#  16]+0.002*[#   8]+0.002*[#  18]
          
    |psi|^2 = 0.998
==== e(  10) =    -9.96425 eV ==== 
     psi = 0.451*[#  21]+0.451*[#  25]+0.021*[#   5]+0.021*[#  15]+0.014*[#  10]
          +0.014*[#  20]+0.005*[#   9]+0.005*[#  19]+0.003*[#   6]+0.003*[#  16]
          +0.002*[#   8]+0.002*[#  18]+0.001*[#   7]+0.001*[#  17]
    |psi|^2 = 0.996
==== e(  11) =    -0.61901 eV ==== 
     psi = 0.150*[#   9]+0.150*[#  19]+0.116*[#   6]+0.116*[#  16]+0.056*[#  23]
          +0.056*[#  27]+0.049*[#   5]+0.049*[#  15]+0.048*[#   8]+0.048*[#  18]
          +0.038*[#   7]+0.038*[#  17]+0.018*[#  24]+0.018*[#  28]+0.014*[#  10]
          +0.014*[#  20]+0.010*[#  22]+0.010*[#  26]
    |psi|^2 = 0.999
==== e(  12) =    -0.45093 eV ==== 
     psi = 0.166*[#   7]+0.166*[#  17]+0.162*[#   8]+0.162*[#  18]+0.054*[#   9]
          +0.054*[#  19]+0.054*[#   6]+0.054*[#  16]+0.048*[#  24]+0.048*[#  28]
          +0.016*[#  23]+0.016*[#  27]
    |psi|^2 = 0.999
==== e(  13) =    -0.37638 eV ==== 
     psi = 0.183*[#   9]+0.183*[#  19]+0.177*[#   5]+0.177*[#  15]+0.063*[#   8]
          +0.063*[#  18]+0.036*[#  22]+0.036*[#  26]+0.023*[#  23]+0.023*[#  27]
          +0.008*[#  24]+0.008*[#  28]+0.008*[#  10]+0.008*[#  20]+0.002*[#   6]
          +0.002*[#  16]
    |psi|^2 = 0.999
==== e(  14) =    -0.22502 eV ==== 
     psi = 0.279*[#   8]+0.279*[#  18]+0.133*[#   9]+0.133*[#  19]+0.035*[#  24]
          +0.035*[#  28]+0.025*[#   7]+0.025*[#  17]+0.016*[#  23]+0.016*[#  27]
          +0.008*[#   6]+0.008*[#  16]+0.003*[#   5]+0.003*[#  15]
    |psi|^2 = 0.999
==== e(  15) =    -0.22096 eV ==== 
     psi = 0.214*[#   5]+0.214*[#  15]+0.133*[#   9]+0.133*[#  19]+0.087*[#   8]
          +0.087*[#  18]+0.024*[#  23]+0.024*[#  27]+0.023*[#  22]+0.023*[#  26]
          +0.013*[#  24]+0.013*[#  28]+0.003*[#  10]+0.003*[#  20]
    |psi|^2 = 0.999
==== e(  16) =     0.10133 eV ==== 
     psi = 0.254*[#   6]+0.254*[#  16]+0.090*[#   9]+0.090*[#  19]+0.084*[#   7]
          +0.084*[#  17]+0.036*[#   5]+0.036*[#  15]+0.029*[#   8]+0.029*[#  18]
          +0.005*[#  22]+0.005*[#  26]
    |psi|^2 = 0.998
==== e(  17) =     0.12892 eV ==== 
     psi = 0.252*[#   6]+0.252*[#  16]+0.103*[#   5]+0.103*[#  15]+0.084*[#   7]
          +0.084*[#  17]+0.025*[#   9]+0.025*[#  19]+0.020*[#  22]+0.020*[#  26]
          +0.009*[#   8]+0.009*[#  18]+0.004*[#  10]+0.004*[#  20]
    |psi|^2 = 0.995
==== e(  18) =     0.26140 eV ==== 
     psi = 0.189*[#   8]+0.189*[#  18]+0.186*[#   7]+0.186*[#  17]+0.063*[#   9]
          +0.063*[#  19]+0.061*[#   6]+0.061*[#  16]
    |psi|^2 = 0.999
==== e(  19) =     0.45005 eV ==== 
     psi = 0.348*[#   7]+0.348*[#  17]+0.116*[#   6]+0.116*[#  16]+0.027*[#   8]
          +0.027*[#  18]+0.009*[#   9]+0.009*[#  19]
    |psi|^2 = 1.000
==== e(  20) =     1.02001 eV ==== 
     psi = 0.331*[#   5]+0.331*[#  15]+0.075*[#   6]+0.075*[#  16]+0.028*[#  21]
          +0.028*[#  25]+0.026*[#   9]+0.026*[#  19]+0.025*[#   7]+0.025*[#  17]
          +0.009*[#   8]+0.009*[#  18]+0.002*[#  10]+0.002*[#  20]+0.001*[#  23]
          +0.001*[#  27]
    |psi|^2 = 0.995
==== e(  21) =     2.75298 eV ==== 
     psi = 0.355*[#  22]+0.355*[#  26]+0.084*[#  10]+0.084*[#  20]+0.019*[#   6]
          +0.019*[#  16]+0.010*[#  23]+0.010*[#  27]+0.007*[#   5]+0.007*[#  15]
[...]
          
    |psi|^2 = 0.984
==== e(  23) =     6.41227 eV ==== 
     psi = 0.297*[#  24]+0.297*[#  28]+0.045*[#   6]+0.045*[#  16]+0.037*[#   8]
          +0.037*[#  18]+0.026*[#  23]+0.026*[#  27]+0.024*[#   7]+0.024*[#  17]
          +0.017*[#  22]+0.017*[#  26]+0.014*[#   9]+0.014*[#  19]+0.011*[#  10]
          +0.011*[#  20]+0.002*[#   5]+0.002*[#  15]+0.002*[#  21]+0.002*[#  25]
          
    |psi|^2 = 0.947
==== e(  24) =     7.06739 eV ==== 
     psi = 0.231*[#  22]+0.231*[#  26]+0.091*[#  24]+0.091*[#  28]+0.061*[#   5]
          +0.061*[#  15]+0.047*[#  23]+0.047*[#  27]+0.023*[#   9]+0.023*[#  19]
          +0.016*[#   7]+0.016*[#  17]+0.002*[#  10]+0.002*[#  20]+0.002*[#   6]
          +0.002*[#  16]+0.001*[#  21]+0.001*[#  25]
    |psi|^2 = 0.950
==== e(  25) =     7.67358 eV ==== 
     psi = 0.228*[#  24]+0.228*[#  28]+0.088*[#  23]+0.088*[#  27]+0.047*[#   7]
          +0.047*[#  17]+0.038*[#  22]+0.038*[#  26]+0.032*[#   8]+0.032*[#  18]
          +0.032*[#   6]+0.032*[#  16]+0.007*[#   9]+0.007*[#  19]+0.004*[#   5]
          +0.004*[#  15]+0.001*[#  10]+0.001*[#  20]
    |psi|^2 = 0.958
==== e(  26) =     8.18045 eV ==== 
     psi = 0.327*[#  22]+0.327*[#  26]+0.067*[#   5]+0.067*[#  15]+0.031*[#  24]
          +0.031*[#  28]+0.030*[#  23]+0.030*[#  27]+0.014*[#   9]+0.014*[#  19]
          +0.008*[#   8]+0.008*[#  18]+0.008*[#   6]+0.008*[#  16]+0.002*[#   7]
          +0.002*[#  17]
    |psi|^2 = 0.975
==== e(  27) =    15.13933 eV ==== 
     psi = 0.275*[#  10]+0.275*[#  20]+0.082*[#  23]+0.082*[#  27]+0.026*[#  21]
          +0.026*[#  25]+0.007*[#  22]+0.007*[#  26]+0.005*[#  24]+0.005*[#  28]
          
    |psi|^2 = 0.795
==== e(  28) =    16.52510 eV ==== 
     psi = 0.112*[#  10]+0.112*[#  20]+0.027*[#  22]+0.027*[#  26]+0.020*[#  23]
          +0.020*[#  27]+0.003*[#  24]+0.003*[#  28]+0.003*[#  21]+0.003*[#  25]
          
    |psi|^2 = 0.336

 k =   0.5000000000  0.0000000000  0.3121026021
==== e(   1) =  -115.91953 eV ==== 
     psi = 0.995*[#  11]+0.002*[#  23]+0.001*[#  20]
    |psi|^2 = 1.000
==== e(   2) =  -115.91950 eV ==== 
     psi = 0.995*[#   1]+0.002*[#  27]+0.001*[#  10]
    |psi|^2 = 1.000
==== e(   3) =   -69.60191 eV ==== 
     psi = 0.865*[#  13]+0.123*[#   2]+0.011*[#  14]
    |psi|^2 = 1.000
==== e(   4) =   -69.60186 eV ==== 
     psi = 0.869*[#   3]+0.119*[#  12]+0.010*[#   4]
    |psi|^2 = 1.000
==== e(   5) =   -69.58909 eV ==== 
     psi = 0.565*[#   2]+0.315*[#  14]+0.120*[#  13]
    |psi|^2 = 1.000
==== e(   6) =   -69.58892 eV ==== 
     psi = 0.560*[#  12]+0.323*[#   4]+0.115*[#   3]
    |psi|^2 = 1.000
==== e(   7) =   -69.57591 eV ==== 
     psi = 0.673*[#  14]+0.311*[#   2]+0.014*[#  13]
    |psi|^2 = 1.000
==== e(   8) =   -69.57580 eV ==== 
     psi = 0.665*[#   4]+0.319*[#  12]+0.014*[#   3]
    |psi|^2 = 1.000
==== e(   9) =    -7.72811 eV ==== 
     psi = 0.897*[#  21]+0.033*[#  20]+0.024*[#  25]+0.013*[#  19]+0.008*[#  10]
          +0.006*[#   5]+0.005*[#  16]+0.005*[#  18]+0.002*[#  17]
    |psi|^2 = 0.995
==== e(  10) =    -7.72810 eV ==== 
     psi = 0.897*[#  25]+0.033*[#  10]+0.024*[#  21]+0.013*[#   9]+0.008*[#  20]
          +0.006*[#  15]+0.005*[#   6]+0.005*[#   8]+0.002*[#   7]
    |psi|^2 = 0.995
==== e(  11) =     3.12043 eV ==== 
     psi = 0.231*[#  16]+0.165*[#  27]+0.127*[#  22]+0.121*[#   9]+0.078*[#   5]
          +0.069*[#  10]+0.054*[#  18]+0.033*[#  26]+0.029*[#  20]+0.025*[#  24]
          +0.023*[#  19]+0.019*[#   6]+0.009*[#   7]+0.007*[#   8]+0.004*[#  23]
          +0.002*[#  17]
    |psi|^2 = 0.996
==== e(  12) =     3.12044 eV ==== 
     psi = 0.231*[#   6]+0.165*[#  23]+0.127*[#  26]+0.121*[#  19]+0.078*[#  15]
          +0.069*[#  20]+0.054*[#   8]+0.033*[#  22]+0.029*[#  10]+0.025*[#  28]
          +0.023*[#   9]+0.019*[#  16]+0.009*[#  17]+0.007*[#  18]+0.004*[#  27]
          +0.002*[#   7]
    |psi|^2 = 0.996
==== e(  13) =     3.52779 eV ==== 
     psi = 0.286*[#   7]+0.217*[#   5]+0.122*[#  17]+0.115*[#  27]+0.074*[#  28]
          +0.037*[#  22]+0.032*[#   8]+0.019*[#  19]+0.019*[#  26]+0.016*[#   6]
          +0.016*[#  23]+0.015*[#  16]+0.011*[#  20]+0.008*[#  18]+0.003*[#   9]
          +0.003*[#  15]+0.003*[#  10]+0.002*[#  24]
    |psi|^2 = 0.995
==== e(  14) =     3.52782 eV ==== 
     psi = 0.286*[#  17]+0.217*[#  15]+0.122*[#   7]+0.115*[#  23]+0.074*[#  24]
          +0.037*[#  26]+0.032*[#  18]+0.019*[#   9]+0.019*[#  22]+0.016*[#  16]
          +0.016*[#  27]+0.015*[#   6]+0.011*[#  10]+0.008*[#   8]+0.003*[#   5]
          +0.003*[#  19]+0.003*[#  20]+0.002*[#  28]
    |psi|^2 = 0.995
==== e(  15) =     3.76217 eV ==== 
     psi = 0.287*[#   5]+0.170*[#   9]+0.122*[#   8]+0.113*[#  28]+0.062*[#   7]
          +0.061*[#  19]+0.048*[#  17]+0.041*[#   6]+0.032*[#  27]+0.023*[#  22]
          +0.012*[#  10]+0.011*[#  23]+0.008*[#  16]+0.004*[#  24]+0.003*[#  20]
          
    |psi|^2 = 0.998
==== e(  16) =     3.76221 eV ==== 
     psi = 0.288*[#  15]+0.170*[#  19]+0.122*[#  18]+0.113*[#  24]+0.062*[#  17]
          +0.061*[#   9]+0.048*[#   7]+0.041*[#  16]+0.032*[#  23]+0.023*[#  26]
          +0.012*[#  20]+0.011*[#  27]+0.008*[#   6]+0.004*[#  28]+0.003*[#  10]
          
    |psi|^2 = 0.998
==== e(  17) =     4.37339 eV ==== 
     psi = 0.366*[#   8]+0.147*[#  16]+0.102*[#   9]+0.101*[#   5]+0.095*[#   7]
          +0.089*[#  17]+0.042*[#  19]+0.042*[#  18]+0.007*[#   6]+0.002*[#  22]
          +0.002*[#  24]+0.001*[#  23]
    |psi|^2 = 0.999
==== e(  18) =     4.37340 eV ==== 
     psi = 0.366*[#  18]+0.147*[#   6]+0.102*[#  19]+0.101*[#  15]+0.095*[#  17]
          +0.089*[#   7]+0.042*[#   9]+0.042*[#   8]+0.007*[#  16]+0.002*[#  26]
          +0.002*[#  28]+0.001*[#  27]
    |psi|^2 = 0.999
==== e(  19) =     4.67037 eV ==== 
     psi = 0.274*[#   6]+0.271*[#  18]+0.202*[#  19]+0.122*[#   5]+0.039*[#  16]
          +0.033*[#  17]+0.012*[#  21]+0.010*[#   8]+0.009*[#  20]+0.007*[#  23]
          +0.006*[#   7]+0.005*[#  26]+0.002*[#  25]+0.001*[#  24]+0.001*[#  27]
          
    |psi|^2 = 0.997
==== e(  20) =     4.67039 eV ==== 
     psi = 0.274*[#  16]+0.271*[#   8]+0.202*[#   9]+0.122*[#  15]+0.039*[#   6]
          +0.033*[#   7]+0.012*[#  25]+0.010*[#  18]+0.009*[#  10]+0.007*[#  27]
          +0.006*[#  17]+0.005*[#  22]+0.002*[#  21]+0.001*[#  28]+0.001*[#  23]
          
    |psi|^2 = 0.997
==== e(  21) =     5.60109 eV ==== 
     psi = 0.208*[#  23]+0.116*[#  17]+0.109*[#  19]+0.096*[#  20]+0.090*[#   9]
          +0.068*[#  16]+0.062*[#   6]+0.048*[#  26]+0.037*[#   5]+0.031*[#  24]
          +0.029*[#  28]+0.024*[#  27]+0.018*[#  21]+0.017*[#   7]+0.012*[#  22]
          +0.012*[#  10]+0.005*[#  25]+0.004*[#   8]+0.002*[#  15]
    |psi|^2 = 0.989
==== e(  22) =     5.60109 eV ==== 
     psi = 0.208*[#  27]+0.116*[#   7]+0.109*[#   9]+0.096*[#  10]+0.090*[#  19]
          +0.068*[#   6]+0.062*[#  16]+0.048*[#  22]+0.037*[#  15]+0.031*[#  28]
          +0.029*[#  24]+0.024*[#  23]+0.018*[#  25]+0.017*[#  17]+0.012*[#  26]
          +0.012*[#  20]+0.005*[#  21]+0.004*[#  18]+0.002*[#   5]
    |psi|^2 = 0.989
==== e(  23) =     6.97199 eV ==== 
     psi = 0.381*[#  24]+0.183*[#  28]+0.111*[#  23]+0.084*[#   7]+0.044*[#  18]
          +0.035*[#   6]+0.027*[#  16]+0.024*[#  17]+0.015*[#  26]+0.013*[#   8]
          +0.007*[#  19]+0.006*[#  15]+0.003*[#  27]+0.003*[#   5]+0.003*[#  10]
          +0.002*[#   9]+0.002*[#  22]+0.001*[#  21]
    |psi|^2 = 0.945
==== e(  24) =     6.97199 eV ==== 
     psi = 0.381*[#  28]+0.183*[#  24]+0.111*[#  27]+0.084*[#  17]+0.044*[#   8]
          +0.035*[#  16]+0.027*[#   6]+0.024*[#   7]+0.015*[#  22]+0.013*[#  18]
          +0.007*[#   9]+0.006*[#   5]+0.003*[#  23]+0.003*[#  15]+0.003*[#  20]
          +0.002*[#  19]+0.002*[#  26]+0.001*[#  25]
    |psi|^2 = 0.945
==== e(  25) =     8.00358 eV ==== 
     psi = 0.566*[#  22]+0.133*[#   5]+0.110*[#  27]+0.069*[#  28]+0.031*[#  19]
          +0.017*[#  23]+0.015*[#  18]+0.015*[#  26]+0.004*[#  24]+0.003*[#   8]
          +0.002*[#  15]+0.002*[#  20]+0.002*[#  16]+0.002*[#  17]+0.001*[#   7]
          +0.001*[#  25]
    |psi|^2 = 0.974
==== e(  26) =     8.00362 eV ==== 
     psi = 0.566*[#  26]+0.133*[#  15]+0.110*[#  23]+0.069*[#  24]+0.031*[#   9]
          +0.017*[#  27]+0.015*[#   8]+0.015*[#  22]+0.004*[#  28]+0.003*[#  18]
          +0.002*[#   5]+0.002*[#  10]+0.002*[#   6]+0.002*[#   7]+0.001*[#  17]
          +0.001*[#  21]
    |psi|^2 = 0.974
==== e(  27) =    15.66382 eV ==== 
     psi = 0.370*[#  20]+0.070*[#  23]+0.038*[#  26]+0.013*[#  21]+0.012*[#  25]
          +0.010*[#  27]+0.008*[#  22]+0.005*[#  10]+0.002*[#  11]+0.001*[#  19]
          
    |psi|^2 = 0.532
==== e(  28) =    15.66389 eV ==== 
     psi = 0.370*[#  10]+0.070*[#  27]+0.038*[#  22]+0.013*[#  25]+0.012*[#  21]
          +0.010*[#  23]+0.008*[#  26]+0.005*[#  20]+0.002*[#   1]+0.001*[#   9]
          
    |psi|^2 = 0.532

 k =   0.5000000000  0.0000000000  0.1560513011
==== e(   1) =  -115.91953 eV ==== 
     psi = 0.644*[#  11]+0.351*[#   1]+0.001*[#  23]
    |psi|^2 = 1.000
==== e(   2) =  -115.91942 eV ==== 
     psi = 0.643*[#   1]+0.350*[#  11]+0.001*[#  27]+0.001*[#  10]
    |psi|^2 = 1.000
==== e(   3) =   -69.60403 eV ==== 
     psi = 0.356*[#  13]+0.355*[#   3]+0.138*[#   2]+0.136*[#  12]+0.007*[#   4]
          +0.007*[#  14]
    |psi|^2 = 1.000
==== e(   4) =   -69.58662 eV ==== 
     psi = 0.361*[#   2]+0.342*[#  12]+0.144*[#   3]+0.142*[#  13]+0.006*[#  14]
          +0.005*[#   4]
    |psi|^2 = 1.000
==== e(   5) =   -69.57863 eV ==== 
     psi = 0.346*[#  12]+0.327*[#   2]+0.128*[#   4]+0.126*[#  14]+0.037*[#  13]
          +0.034*[#   3]
    |psi|^2 = 1.000
==== e(   6) =   -69.57321 eV ==== 
     psi = 0.250*[#  13]+0.250*[#   3]+0.232*[#  14]+0.231*[#   4]+0.018*[#  12]
          +0.017*[#   2]
    |psi|^2 = 1.000
==== e(   7) =   -69.56253 eV ==== 
     psi = 0.214*[#   3]+0.213*[#  13]+0.146*[#  12]+0.144*[#   2]+0.143*[#  14]
          +0.139*[#   4]
    |psi|^2 = 1.000
==== e(   8) =   -69.55741 eV ==== 
     psi = 0.489*[#   4]+0.485*[#  14]+0.011*[#  12]+0.011*[#   2]+0.001*[#  13]
          +0.001*[#   3]
    |psi|^2 = 1.000
==== e(   9) =    -7.82237 eV ==== 
     psi = 0.443*[#  21]+0.443*[#  25]+0.041*[#  10]+0.041*[#  20]+0.006*[#   9]
          +0.006*[#  19]+0.003*[#   6]+0.003*[#   8]+0.003*[#  16]+0.003*[#  18]
          +0.002*[#   5]+0.002*[#  15]
    |psi|^2 = 0.997
==== e(  10) =    -7.64296 eV ==== 
     psi = 0.473*[#  21]+0.473*[#  25]+0.007*[#   9]+0.007*[#  19]+0.006*[#   5]
          +0.006*[#  15]+0.005*[#  10]+0.005*[#  20]+0.003*[#   6]+0.003*[#  16]
          +0.002*[#   8]+0.002*[#  18]
    |psi|^2 = 0.995
==== e(  11) =     3.20381 eV ==== 
     psi = 0.164*[#  16]+0.164*[#   6]+0.081*[#  27]+0.081*[#  23]+0.069*[#   7]
          +0.069*[#  17]+0.050*[#   9]+0.050*[#  19]+0.042*[#   8]+0.042*[#  18]
          +0.039*[#  22]+0.039*[#  26]+0.029*[#  24]+0.029*[#  28]+0.014*[#  10]
          +0.014*[#  20]+0.010*[#   5]+0.010*[#  15]
    |psi|^2 = 0.996
==== e(  12) =     3.22144 eV ==== 
     psi = 0.110*[#   6]+0.110*[#  16]+0.105*[#  23]+0.105*[#  27]+0.061*[#   5]
          +0.061*[#  15]+0.056*[#  22]+0.056*[#  26]+0.054*[#   9]+0.054*[#  19]
          +0.048*[#  10]+0.048*[#  20]+0.029*[#   7]+0.029*[#  17]+0.022*[#   8]
          +0.022*[#  18]+0.012*[#  24]+0.012*[#  28]
    |psi|^2 = 0.996
==== e(  13) =     3.57646 eV ==== 
     psi = 0.211*[#   7]+0.211*[#  17]+0.092*[#  19]+0.092*[#   9]+0.063*[#  22]
          +0.063*[#  26]+0.055*[#  24]+0.055*[#  28]+0.032*[#   5]+0.032*[#  15]
          +0.018*[#  10]+0.018*[#  20]+0.017*[#  23]+0.017*[#  27]+0.009*[#   8]
          +0.009*[#  18]
    |psi|^2 = 0.996
==== e(  14) =     3.60276 eV ==== 
     psi = 0.188*[#   5]+0.188*[#  15]+0.095*[#   9]+0.095*[#  19]+0.078*[#  23]
          +0.078*[#  27]+0.055*[#   7]+0.055*[#  17]+0.040*[#  22]+0.040*[#  26]
          +0.021*[#   8]+0.021*[#  18]+0.011*[#  24]+0.011*[#  28]+0.006*[#  10]
          +0.006*[#  20]+0.003*[#   6]+0.003*[#  16]
    |psi|^2 = 0.995
==== e(  15) =     3.86467 eV ==== 
     psi = 0.209*[#   5]+0.209*[#  15]+0.065*[#   9]+0.065*[#  19]+0.062*[#   8]
          +0.062*[#  18]+0.055*[#  23]+0.055*[#  27]+0.026*[#   6]+0.026*[#  16]
          +0.023*[#  22]+0.023*[#  26]+0.022*[#  24]+0.022*[#  28]+0.022*[#  10]
          +0.022*[#  20]+0.015*[#   7]+0.015*[#  17]
    |psi|^2 = 0.999
==== e(  16) =     3.88690 eV ==== 
     psi = 0.126*[#   7]+0.126*[#  17]+0.118*[#  18]+0.118*[#   8]+0.082*[#  24]
          +0.082*[#  28]+0.052*[#   9]+0.052*[#  19]+0.051*[#   6]+0.051*[#  15]
          +0.051*[#  16]+0.051*[#   5]+0.010*[#  22]+0.010*[#  26]+0.006*[#  23]
          +0.006*[#  27]+0.003*[#  10]+0.003*[#  20]
    |psi|^2 = 0.996
==== e(  17) =     4.29215 eV ==== 
     psi = 0.145*[#   6]+0.145*[#  16]+0.138*[#   9]+0.138*[#  19]+0.076*[#   5]
          +0.076*[#  15]+0.071*[#   7]+0.071*[#  17]+0.063*[#   8]+0.063*[#  18]
          +0.002*[#  22]+0.002*[#  26]+0.001*[#  10]+0.001*[#  20]+0.001*[#  24]
          +0.001*[#  28]
    |psi|^2 = 0.998
==== e(  18) =     4.45712 eV ==== 
     psi = 0.259*[#   8]+0.259*[#  18]+0.070*[#   6]+0.070*[#  16]+0.068*[#   7]
          +0.068*[#  17]+0.067*[#   5]+0.068*[#  15]+0.033*[#   9]+0.033*[#  19]
          +0.001*[#  22]+0.001*[#  26]+0.001*[#  23]+0.001*[#  27]
    |psi|^2 = 0.999
==== e(  19) =     4.58919 eV ==== 
     psi = 0.219*[#   8]+0.219*[#  18]+0.110*[#   7]+0.110*[#  17]+0.102*[#   6]
          +0.102*[#  16]+0.031*[#   5]+0.031*[#  15]+0.024*[#   9]+0.024*[#  19]
          +0.005*[#  23]+0.005*[#  27]+0.004*[#  10]+0.004*[#  20]+0.002*[#  21]
          +0.002*[#  25]+0.001*[#  22]+0.001*[#  26]
    |psi|^2 = 0.999
==== e(  20) =     4.81299 eV ==== 
     psi = 0.151*[#   6]+0.151*[#  16]+0.140*[#   9]+0.140*[#  19]+0.090*[#   5]
          +0.090*[#  15]+0.072*[#   8]+0.072*[#  18]+0.019*[#   7]+0.019*[#  17]
          +0.015*[#  21]+0.015*[#  25]+0.005*[#  22]+0.005*[#  26]+0.003*[#  10]
          +0.003*[#  20]+0.002*[#  23]+0.002*[#  24]+0.002*[#  27]+0.002*[#  28]
          
    |psi|^2 = 0.995
==== e(  21) =     5.33902 eV ==== 
     psi = 0.126*[#  23]+0.126*[#  27]+0.081*[#   9]+0.081*[#  19]+0.070*[#  10]
          +0.070*[#  20]+0.053*[#   7]+0.053*[#  17]+0.051*[#   6]+0.051*[#  16]
          +0.042*[#  22]+0.042*[#  26]+0.033*[#  24]+0.033*[#  28]+0.020*[#   8]
          +0.020*[#  18]+0.019*[#   5]+0.019*[#  15]+0.003*[#  21]+0.003*[#  25]
          
    |psi|^2 = 0.995
==== e(  22) =     5.87335 eV ==== 
     psi = 0.143*[#  23]+0.143*[#  27]+0.101*[#   9]+0.101*[#  19]+0.082*[#   7]
          +0.082*[#  17]+0.043*[#  10]+0.043*[#  20]+0.032*[#   6]+0.032*[#  16]
          +0.021*[#  24]+0.021*[#  28]+0.021*[#  21]+0.021*[#  25]+0.020*[#   5]
          +0.020*[#  15]+0.020*[#  22]+0.020*[#  26]+0.008*[#   8]+0.008*[#  18]
          
    |psi|^2 = 0.984
==== e(  23) =     6.41227 eV ==== 
     psi = 0.297*[#  24]+0.297*[#  28]+0.045*[#   6]+0.045*[#  16]+0.037*[#   8]
          +0.037*[#  18]+0.026*[#  23]+0.026*[#  27]+0.024*[#   7]+0.024*[#  17]
          +0.017*[#  22]+0.017*[#  26]+0.014*[#   9]+0.014*[#  19]+0.011*[#  10]
          +0.011*[#  20]+0.002*[#   5]+0.002*[#  15]+0.002*[#  21]+0.002*[#  25]
          
    |psi|^2 = 0.947
==== e(  24) =     7.06739 eV ==== 
     psi = 0.231*[#  22]+0.231*[#  26]+0.091*[#  24]+0.091*[#  28]+0.061*[#   5]
          +0.061*[#  15]+0.047*[#  23]+0.047*[#  27]+0.023*[#   9]+0.023*[#  19]
          +0.016*[#   7]+0.016*[#  17]+0.002*[#  10]+0.002*[#  20]+0.002*[#   6]
          +0.002*[#  16]+0.001*[#  21]+0.001*[#  25]
    |psi|^2 = 0.950
==== e(  25) =     7.67358 eV ==== 
     psi = 0.228*[#  24]+0.228*[#  28]+0.088*[#  23]+0.088*[#  27]+0.047*[#   7]
          +0.047*[#  17]+0.038*[#  22]+0.038*[#  26]+0.032*[#   8]+0.032*[#  18]
          +0.032*[#   6]+0.032*[#  16]+0.007*[#   9]+0.007*[#  19]+0.004*[#   5]
          +0.004*[#  15]+0.001*[#  10]+0.001*[#  20]
    |psi|^2 = 0.958
==== e(  26) =     8.18045 eV ==== 
     psi = 0.327*[#  22]+0.327*[#  26]+0.067*[#   5]+0.067*[#  15]+0.031*[#  24]
          +0.031*[#  28]+0.030*[#  23]+0.030*[#  27]+0.014*[#   9]+0.014*[#  19]
          +0.008*[#   8]+0.008*[#  18]+0.008*[#   6]+0.008*[#  16]+0.002*[#   7]
          +0.002*[#  17]
    |psi|^2 = 0.975
==== e(  27) =    15.13933 eV ==== 
     psi = 0.275*[#  10]+0.275*[#  20]+0.082*[#  23]+0.082*[#  27]+0.026*[#  21]
          +0.026*[#  25]+0.007*[#  22]+0.007*[#  26]+0.005*[#  24]+0.005*[#  28]
          
    |psi|^2 = 0.795
==== e(  28) =    16.52510 eV ==== 
     psi = 0.112*[#  10]+0.112*[#  20]+0.027*[#  22]+0.027*[#  26]+0.020*[#  23]
          +0.020*[#  27]+0.003*[#  24]+0.003*[#  28]+0.003*[#  21]+0.003*[#  25]
          
    |psi|^2 = 0.336

Lowdin Charges: 

     Atom #   1: total charge =  18.6063, s =  2.6317, p =  5.9992, d =  9.9754, 
                 spin up      =   9.3031, s =  1.3158, 
                 spin up      =   9.3031, p =  2.9996, pz=  0.9999, px=  0.9999, py=  0.9999, 
                 spin up      =   9.3031, d =  4.9877, dz2=  0.9963, dxz=  0.9983, dyz=  0.9983, dx2-y2=  0.9974, dxy=  0.9974, 
                 spin down    =   9.3032, s =  1.3158, 
                 spin down    =   9.3032, p =  2.9996, pz=  0.9999, px=  0.9999, py=  0.9999, 
                 spin down    =   9.3032, d =  4.9877, dz2=  0.9963, dxz=  0.9983, dyz=  0.9983, dx2-y2=  0.9974, dxy=  0.9974, 
                 polarization =  -0.0001, s =  0.0000, p = -0.0000, d = -0.0001, 
     Atom #   2: total charge =  18.6063, s =  2.6317, p =  5.9992, d =  9.9754, 
                 spin up      =   9.3031, s =  1.3158, 
                 spin up      =   9.3031, p =  2.9996, pz=  0.9999, px=  0.9999, py=  0.9999, 
                 spin up      =   9.3031, d =  4.9877, dz2=  0.9963, dxz=  0.9983, dyz=  0.9983, dx2-y2=  0.9974, dxy=  0.9974, 
                 spin down    =   9.3032, s =  1.3158, 
                 spin down    =   9.3032, p =  2.9996, pz=  0.9999, px=  0.9999, py=  0.9999, 
                 spin down    =   9.3032, d =  4.9877, dz2=  0.9963, dxz=  0.9983, dyz=  0.9983, dx2-y2=  0.9974, dxy=  0.9974, 
                 polarization =  -0.0001, s =  0.0000, p = -0.0000, d = -0.0001, 
     Atom #   3: total charge =   7.1983, s =  1.8659, p =  5.3324, d =  0.0000, 
                 spin up      =   3.5991, s =  0.9330, 
                 spin up      =   3.5991, p =  2.6662, pz=  0.8892, px=  0.8885, py=  0.8885, 
                 spin up      =   3.5991, d =  0.0000, dz2=  0.0000, dxz=  0.0000, dyz=  0.0000, dx2-y2=  0.0000, dxy=  0.0000, 
                 spin down    =   3.5992, s =  0.9330, 
                 spin down    =   3.5992, p =  2.6662, pz=  0.8892, px=  0.8885, py=  0.8885, 
                 spin down    =   3.5992, d =  0.0000, dz2=  0.0000, dxz=  0.0000, dyz=  0.0000, dx2-y2=  0.0000, dxy=  0.0000, 
                 polarization =  -0.0000, s = -0.0000, p = -0.0000, d =  0.0000, 
     Atom #   4: total charge =   7.1983, s =  1.8659, p =  5.3323, d =  0.0000, 
                 spin up      =   3.5991, s =  0.9330, 
                 spin up      =   3.5991, p =  2.6662, pz=  0.8892, px=  0.8885, py=  0.8885, 
                 spin up      =   3.5991, d =  0.0000, dz2=  0.0000, dxz=  0.0000, dyz=  0.0000, dx2-y2=  0.0000, dxy=  0.0000, 
                 spin down    =   3.5992, s =  0.9330, 
                 spin down    =   3.5992, p =  2.6662, pz=  0.8892, px=  0.8885, py=  0.8885, 
                 spin down    =   3.5992, d =  0.0000, dz2=  0.0000, dxz=  0.0000, dyz=  0.0000, dx2-y2=  0.0000, dxy=  0.0000, 
                 polarization =  -0.0000, s = -0.0000, p = -0.0000, d =  0.0000, 
     Spilling Parameter:   0.0075
 
     PROJWFC      :      2.43s CPU      6.39s WALL

 
   This run was terminated on:   8:34:36  18Oct2022            

=------------------------------------------------------------------------------=
   JOB DONE.
=------------------------------------------------------------------------------=
