
     Program PWSCF v.7.1 starts on 31Oct2022 at 15:27:49 

     This program is part of the open-source Quantum ESPRESSO suite
     for quantum simulation of materials; please cite
         "P. Giannozzi et al., J. Phys.:Condens. Matter 21 395502 (2009);
         "P. Giannozzi et al., J. Phys.:Condens. Matter 29 465901 (2017);
         "P. Giannozzi et al., J. Chem. Phys. 152 154105 (2020);
          URL http://www.quantum-espresso.org", 
     in publications or presentations arising from this work. More details at
     http://www.quantum-espresso.org/quote

     Parallel version (MPI), running on     1 processors

     MPI processes distributed on     1 nodes
     1044 MiB available memory on the printing compute node when the environment starts
 
     Reading input from Si.pw.in

     Current dimensions of program PWSCF are:
     Max number of different atomic species (ntypx) = 10
     Max number of k-points (npk) =  40000
     Max angular momentum in pseudopotentials (lmaxx) =  4

     IMPORTANT: XC functional enforced from input :
     Exchange-correlation= HSE
                           (   1   4  12   4   0   0   0)
     EXX-fraction              =        0.25
     Any further DFT definition will be discarded
     Please, verify this is what you really want

 
     Subspace diagonalization in iterative solution of the eigenvalue problem:
     a serial algorithm will be used

     EXX: q-point mesh:     4    4    4
     EXX: setup a grid of 1600 q-points centered on each k-point
     (k+q)-points:
   0.0000000   0.0000000   0.0000000         1    1
  -0.2500000   0.2500000  -0.2500000         4    1
   0.5000000  -0.5000000   0.5000000         7    1
   0.2500000  -0.2500000   0.2500000         4   -1
   0.2500000   0.2500000   0.2500000         4    3
   0.0000000   0.5000000   0.0000000        28    1
   0.7500000  -0.2500000   0.7500000        31    1
   0.5000000   0.0000000   0.5000000        34    1
  -0.5000000  -0.5000000  -0.5000000         7    3
  -0.7500000  -0.2500000  -0.7500000        31    3
   0.0000000  -1.0000000   0.0000000        43    1
   0.7500000   0.2500000   0.7500000        31   -3
  -0.2500000  -0.2500000  -0.2500000         4   -3
  -0.5000000   0.0000000  -0.5000000        34   -1
  -0.7500000   0.2500000  -0.7500000        31   -1
   0.0000000  -0.5000000   0.0000000        28   -1
  -0.2500000  -0.2500000   0.2500000         4    4
  -0.5000000   0.0000000   0.0000000        28   -5
   0.2500000  -0.7500000   0.7500000        31   -5
   0.0000000  -0.5000000   0.5000000        34   -5
   0.0000000   0.0000000   0.5000000        28   13
  -0.2500000   0.2500000   0.2500000         4   -2
  -0.5000000   0.5000000   0.0000000        34   13
  -0.7500000   0.7500000  -0.2500000        31   13
  -0.7500000  -0.7500000  -0.2500000        31  -16
   0.0000000   0.5000000   0.5000000        34   -6
   0.7500000  -0.2500000  -0.7500000        31   -2
  -0.5000000  -1.0000000   0.0000000        72    1
  -0.5000000  -0.5000000   0.0000000        34   14
   0.2500000   0.7500000   0.7500000        31    7
   0.0000000  -1.0000000   0.5000000        72   -9
   0.7500000   0.2500000  -0.7500000        31    4
   0.5000000   0.5000000  -0.5000000         7    4
   0.2500000   0.7500000  -0.7500000        31   -8
  -1.0000000   0.0000000   0.0000000        43    5
  -0.2500000  -0.7500000   0.7500000        31    8
   0.7500000   0.7500000  -0.2500000        31  -14
  -0.5000000   0.0000000   0.5000000        34    2
   0.2500000  -0.7500000  -0.7500000        31    6
   1.0000000   0.5000000   0.0000000        72   -5
   0.0000000   0.0000000  -1.0000000        43   13
   0.7500000  -0.7500000  -0.2500000        31   15
  -0.5000000   0.5000000   0.5000000         7    2
  -0.7500000   0.7500000   0.2500000        31  -15
  -0.7500000  -0.7500000   0.2500000        31   14
  -1.0000000  -0.5000000   0.0000000        72    5
  -0.2500000   0.7500000   0.7500000        31   -6
   0.5000000   0.0000000  -0.5000000        34   -2
   0.2500000   0.2500000  -0.2500000         4   -4
   0.0000000   0.5000000  -0.5000000        34    5
  -0.2500000   0.7500000  -0.7500000        31    5
   0.5000000   0.0000000   0.0000000        28    5
   0.5000000   0.5000000   0.0000000        34  -14
  -0.7500000  -0.2500000   0.7500000        31   -4
   0.0000000   1.0000000  -0.5000000        72    9
  -0.2500000  -0.7500000  -0.7500000        31   -7
   0.7500000   0.7500000   0.2500000        31   16
   0.5000000   1.0000000   0.0000000        72   -1
  -0.7500000   0.2500000   0.7500000        31    2
   0.0000000  -0.5000000  -0.5000000        34    6
   0.0000000   0.0000000  -0.5000000        28  -13
   0.7500000  -0.7500000   0.2500000        31  -13
   0.5000000  -0.5000000   0.0000000        34  -13
   0.2500000  -0.2500000  -0.2500000         4    2
  -0.0833333   0.0833333  -0.0833333         2    1
  -0.3333333   0.3333333  -0.3333333         5    1
   0.4166667  -0.4166667   0.4166667         6   -1
   0.1666667  -0.1666667   0.1666667         3   -1
   0.1666667   0.3333333   0.1666667        10    3
  -0.0833333   0.5833333  -0.0833333        29    1
   0.6666667  -0.1666667   0.6666667        32    1
   0.4166667   0.0833333   0.4166667        26   -3
  -0.5833333  -0.4166667  -0.5833333        13    3
  -0.8333333  -0.1666667  -0.8333333        37    3
   0.9166667   0.0833333   0.9166667        41   -3
   0.6666667   0.3333333   0.6666667        23   -3
  -0.3333333  -0.1666667  -0.3333333        16    3
  -0.5833333   0.0833333  -0.5833333        33   -1
   0.1666667  -0.6666667   0.1666667        30   -1
  -0.0833333  -0.4166667  -0.0833333        20   -3
  -0.3333333  -0.1666667   0.1666667        10   -8
  -0.5833333   0.0833333  -0.0833333        29   -5
   0.1666667  -0.6666667   0.6666667        32   -5
  -0.0833333  -0.4166667   0.4166667        26    8
  -0.0833333   0.0833333   0.4166667        20   15
  -0.3333333   0.3333333   0.1666667        16  -15
  -0.5833333   0.5833333  -0.0833333        33   13
   0.1666667  -0.1666667   0.6666667        30   13
  -0.8333333  -0.6666667  -0.3333333        51   18
  -0.0833333   0.5833333   0.4166667        54   21
   0.6666667  -0.1666667  -0.8333333        58   -2
  -0.5833333  -0.9166667  -0.0833333        69  -16
  -0.5833333  -0.4166667  -0.0833333        54   18
   0.1666667   0.8333333   0.6666667        58  -24
   0.9166667   0.0833333  -0.5833333        69  -11
   0.6666667   0.3333333  -0.8333333        51    4
   0.4166667   0.5833333  -0.5833333        13   -8
   0.1666667   0.8333333  -0.8333333        37   -8
  -0.0833333  -0.9166667   0.9166667        41    8
  -0.3333333  -0.6666667   0.6666667        23    8
   0.6666667   0.8333333  -0.3333333        51  -14
  -0.5833333   0.0833333   0.4166667        54  -12
   0.1666667  -0.6666667  -0.8333333        58    6
   0.9166667   0.5833333  -0.0833333        69   17
   0.9166667  -0.9166667  -0.0833333        41   15
   0.6666667  -0.6666667  -0.3333333        23   15
  -0.5833333   0.5833333   0.4166667        13  -15
  -0.8333333   0.8333333   0.1666667        37  -15
  -0.8333333  -0.6666667   0.1666667        58  -17
  -0.0833333   0.5833333   0.9166667        69   -6
  -0.3333333   0.8333333   0.6666667        51   21
   0.4166667   0.0833333  -0.5833333        54    4
   0.1666667   0.3333333  -0.3333333        16   -8
  -0.0833333   0.5833333  -0.5833333        33    5
   0.6666667  -0.1666667   0.1666667        30    5
   0.4166667   0.0833333  -0.0833333        20    8
   0.4166667   0.5833333  -0.0833333        54  -14
  -0.8333333  -0.1666667   0.6666667        58   11
  -0.0833333  -0.9166667  -0.5833333        69   24
  -0.3333333  -0.6666667  -0.8333333        51   -7
   0.6666667   0.8333333   0.1666667        58   16
  -0.5833333   0.0833333   0.9166667        69    2
  -0.8333333   0.3333333   0.6666667        51  -12
  -0.0833333  -0.4166667  -0.5833333        54   -7
  -0.0833333   0.0833333  -0.5833333        29  -13
   0.6666667  -0.6666667   0.1666667        32  -13
   0.4166667  -0.4166667  -0.0833333        26   15
   0.1666667  -0.1666667  -0.3333333        10  -15
  -0.1666667   0.1666667  -0.1666667         3    1
  -0.4166667   0.4166667  -0.4166667         6    1
   0.3333333  -0.3333333   0.3333333         5   -1
   0.0833333  -0.0833333   0.0833333         2   -1
   0.0833333   0.4166667   0.0833333        20    3
  -0.1666667   0.6666667  -0.1666667        30    1
   0.5833333  -0.0833333   0.5833333        33    1
   0.3333333   0.1666667   0.3333333        16   -3
  -0.6666667  -0.3333333  -0.6666667        23    3
  -0.9166667  -0.0833333  -0.9166667        41    3
   0.8333333   0.1666667   0.8333333        37   -3
   0.5833333   0.4166667   0.5833333        13   -3
  -0.4166667  -0.0833333  -0.4166667        26    3
  -0.6666667   0.1666667  -0.6666667        32   -1
   0.0833333  -0.5833333   0.0833333        29   -1
  -0.1666667  -0.3333333  -0.1666667        10   -3
  -0.4166667  -0.0833333   0.0833333        20   -8
  -0.6666667   0.1666667  -0.1666667        30   -5
   0.0833333  -0.5833333   0.5833333        33   -5
  -0.1666667  -0.3333333   0.3333333        16    8
  -0.1666667   0.1666667   0.3333333        10   15
  -0.4166667   0.4166667   0.0833333        26  -15
  -0.6666667   0.6666667  -0.1666667        32   13
   0.0833333  -0.0833333   0.5833333        29   13
   0.0833333   0.4166667   0.5833333        54    7
   0.8333333  -0.3333333  -0.6666667        51   12
   0.5833333  -0.0833333  -0.9166667        69   -2
  -0.6666667  -0.8333333  -0.1666667        58  -16
   0.3333333   0.6666667   0.8333333        51    7
   0.0833333   0.9166667   0.5833333        69  -24
   0.8333333   0.1666667  -0.6666667        58  -11
  -0.4166667  -0.5833333   0.0833333        54   14
   0.3333333   0.6666667  -0.6666667        23   -8
   0.0833333   0.9166667  -0.9166667        41   -8
  -0.1666667  -0.8333333   0.8333333        37    8
  -0.4166667  -0.5833333   0.5833333        13    8
  -0.4166667  -0.0833333   0.5833333        54   -4
   0.3333333  -0.8333333  -0.6666667        51  -21
   0.0833333  -0.5833333  -0.9166667        69    6
   0.8333333   0.6666667  -0.1666667        58   17
   0.8333333  -0.8333333  -0.1666667        37   15
   0.5833333  -0.5833333  -0.4166667        13   15
  -0.6666667   0.6666667   0.3333333        23  -15
  -0.9166667   0.9166667   0.0833333        41  -15
  -0.9166667  -0.5833333   0.0833333        69  -17
  -0.1666667   0.6666667   0.8333333        58   -6
   0.5833333  -0.0833333  -0.4166667        54   12
  -0.6666667  -0.8333333   0.3333333        51   14
   0.0833333   0.4166667  -0.4166667        26   -8
  -0.1666667   0.6666667  -0.6666667        32    5
   0.5833333  -0.0833333   0.0833333        29    5
   0.3333333   0.1666667  -0.1666667        10    8
  -0.6666667  -0.3333333   0.8333333        51   -4
  -0.9166667  -0.0833333   0.5833333        69   11
  -0.1666667  -0.8333333  -0.6666667        58   24
   0.5833333   0.4166667   0.0833333        54  -18
   0.5833333   0.9166667   0.0833333        69   16
  -0.6666667   0.1666667   0.8333333        58    2
   0.0833333  -0.5833333  -0.4166667        54  -21
   0.8333333   0.6666667   0.3333333        51  -18
  -0.1666667   0.1666667  -0.6666667        30  -13
   0.5833333  -0.5833333   0.0833333        33  -13
   0.3333333  -0.3333333  -0.1666667        16   15
   0.0833333  -0.0833333  -0.4166667        20  -15
   0.0000000   0.1666667   0.0000000         8    1
  -0.2500000   0.4166667  -0.2500000        11    1
   0.5000000  -0.3333333   0.5000000        14    1
   0.2500000  -0.0833333   0.2500000        17    1
   0.2500000   0.4166667   0.2500000        11    3
   0.0000000   0.6666667   0.0000000        35    1
   0.7500000  -0.0833333   0.7500000        38    1
   0.5000000   0.1666667   0.5000000        25   -3
  -0.5000000  -0.3333333  -0.5000000        14    3
  -0.7500000  -0.0833333  -0.7500000        38    3
   0.0000000  -0.8333333   0.0000000        40   -1
  -0.2500000  -0.5833333  -0.2500000        22   -3
  -0.2500000  -0.0833333  -0.2500000        17    3
  -0.5000000   0.1666667  -0.5000000        25   -1
   0.2500000  -0.5833333   0.2500000        22   -1
   0.0000000  -0.3333333   0.0000000        19   -1
  -0.2500000  -0.0833333   0.2500000        17   -4
  -0.5000000   0.1666667   0.0000000        49   -5
   0.2500000  -0.5833333   0.7500000        52   -5
  -0.0000000  -0.3333333   0.5000000        55   -5
   0.0000000   0.1666667   0.5000000        49   18
  -0.2500000   0.4166667   0.2500000        11   -2
  -0.5000000   0.6666667   0.0000000        60   13
  -0.7500000   0.9166667  -0.2500000        57   13
  -0.7500000  -0.5833333  -0.2500000        52   18
  -0.0000000   0.6666667   0.5000000        60   21
   0.7500000  -0.0833333  -0.7500000        38   -2
  -0.5000000  -0.8333333   0.0000000        70   14
  -0.5000000  -0.3333333  -0.0000000        55  -17
   0.2500000   0.9166667   0.7500000        57  -24
   0.0000000  -0.8333333   0.5000000        70   22
  -0.2500000  -0.5833333   0.2500000        22    4
  -0.5000000  -0.3333333   0.5000000        14   -4
   0.2500000   0.9166667  -0.7500000        57   23
   1.0000000   0.1666667   0.0000000        64   -5
  -0.2500000  -0.5833333   0.7500000        52    8
   0.7500000   0.9166667  -0.2500000        57  -14
  -0.5000000   0.1666667   0.5000000        25    2
   0.2500000  -0.5833333  -0.7500000        52    6
   0.0000000  -0.3333333  -1.0000000        71   17
   0.0000000   0.1666667   1.0000000        64  -17
   0.7500000  -0.5833333  -0.2500000        52  -19
   0.5000000  -0.3333333  -0.5000000        14   -2
  -0.7500000   0.9166667   0.2500000        57  -15
  -0.7500000  -0.5833333   0.2500000        52  -17
  -1.0000000  -0.3333333   0.0000000        71    5
  -0.2500000   0.9166667   0.7500000        57   21
   0.5000000   0.1666667  -0.5000000        25    4
   0.2500000   0.4166667  -0.2500000        11   -4
   0.0000000   0.6666667  -0.5000000        60  -22
  -0.2500000   0.9166667  -0.7500000        57  -22
   0.5000000   0.1666667   0.0000000        49   -7
   0.5000000   0.6666667   0.0000000        60  -14
  -0.7500000  -0.0833333   0.7500000        38   -4
  -0.0000000  -0.8333333  -0.5000000        70  -21
  -0.2500000  -0.5833333  -0.7500000        52   -7
   0.7500000   0.9166667   0.2500000        57   16
   0.5000000  -0.8333333   0.0000000        70  -13
   0.2500000  -0.5833333  -0.2500000        22    2
  -0.0000000  -0.3333333  -0.5000000        55    6
   0.0000000   0.1666667  -0.5000000        49  -17
   0.7500000  -0.5833333   0.2500000        52   20
   0.5000000  -0.3333333   0.0000000        55  -19
   0.2500000  -0.0833333  -0.2500000        17   -2
  -0.0833333   0.2500000  -0.0833333         9    1
  -0.3333333   0.5000000  -0.3333333        12    1
   0.4166667  -0.2500000   0.4166667        15    1
   0.1666667  -0.0000000   0.1666667        18    1
   0.1666667   0.5000000   0.1666667        21    3
  -0.0833333   0.7500000  -0.0833333        36    1
   0.6666667   0.0000000   0.6666667        39    1
   0.4166667   0.2500000   0.4166667        15   -3
  -0.5833333  -0.2500000  -0.5833333        24    3
  -0.8333333   0.0000000  -0.8333333        42   -1
  -0.0833333  -0.7500000  -0.0833333        36   -3
  -0.3333333  -0.5000000  -0.3333333        12   -3
  -0.3333333   0.0000000  -0.3333333        27   -1
  -0.5833333   0.2500000  -0.5833333        24   -1
   0.1666667  -0.5000000   0.1666667        21   -1
  -0.0833333  -0.2500000  -0.0833333         9   -3
  -0.3333333   0.0000000   0.1666667        44  -21
  -0.5833333   0.2500000  -0.0833333        50   -5
   0.1666667  -0.5000000   0.6666667        53   -5
  -0.0833333  -0.2500000   0.4166667        45   17
  -0.0833333   0.2500000   0.4166667        45  -19
  -0.3333333   0.5000000   0.1666667        46   -2
  -0.5833333   0.7500000  -0.0833333        59   13
   0.1666667  -0.0000000   0.6666667        56   13
   0.1666667   0.5000000   0.6666667        53    7
   0.9166667  -0.2500000  -0.5833333        66   12
   0.6666667  -0.0000000  -0.8333333        63   -2
  -0.5833333  -0.7500000  -0.0833333        59  -16
  -0.5833333  -0.2500000  -0.0833333        50    7
   0.1666667  -1.0000000   0.6666667        68   22
   0.9166667   0.2500000  -0.5833333        66  -11
  -0.3333333  -0.5000000   0.1666667        46    4
   0.4166667   0.7500000  -0.5833333        47   23
   0.1666667  -1.0000000  -0.8333333        61  -21
  -0.0833333  -0.7500000   0.9166667        62    8
  -0.3333333  -0.5000000   0.6666667        48    8
   0.6666667   1.0000000  -0.3333333        65  -14
   0.4166667  -0.7500000  -0.5833333        47  -21
   0.1666667  -0.5000000  -0.8333333        67    6
   0.9166667   0.7500000  -0.0833333        62   17
   0.9166667  -0.7500000  -0.0833333        62  -19
  -0.3333333   0.5000000   0.6666667        48   -6
  -0.5833333   0.7500000   0.4166667        47  -15
  -0.8333333  -1.0000000   0.1666667        61   14
   0.1666667   0.5000000  -0.8333333        67   -8
  -0.0833333   0.7500000   0.9166667        62   -6
  -0.3333333   1.0000000   0.6666667        65   21
  -0.5833333  -0.7500000   0.4166667        47   14
   0.1666667   0.5000000  -0.3333333        46   11
  -0.0833333   0.7500000  -0.5833333        59  -22
   0.6666667  -0.0000000   0.1666667        56  -22
   0.4166667   0.2500000  -0.0833333        45    8
  -0.5833333  -0.2500000   0.9166667        66   -4
  -0.8333333   0.0000000   0.6666667        63   11
  -0.0833333  -0.7500000  -0.5833333        59   24
   0.6666667   0.5000000   0.1666667        53  -18
   0.6666667  -1.0000000   0.1666667        68  -13
  -0.5833333   0.2500000   0.9166667        66    2
   0.1666667  -0.5000000  -0.3333333        46  -12
  -0.0833333  -0.2500000  -0.5833333        50  -18
  -0.0833333   0.2500000  -0.5833333        50   20
   0.6666667  -0.5000000   0.1666667        53   20
   0.4166667  -0.2500000  -0.0833333        45   -6
   0.1666667   0.0000000  -0.3333333        44   14
  -0.1666667   0.3333333  -0.1666667        10    1
   0.5833333  -0.4166667   0.5833333        13    1
   0.3333333  -0.1666667   0.3333333        16    1
   0.0833333   0.0833333   0.0833333         2    3
   0.0833333   0.5833333   0.0833333        29    3
   0.8333333  -0.1666667   0.8333333        37    1
   0.5833333   0.0833333   0.5833333        33   -3
   0.3333333   0.3333333   0.3333333         5    3
  -0.6666667  -0.1666667  -0.6666667        32    3
  -0.9166667   0.0833333  -0.9166667        41   -1
  -0.1666667  -0.6666667  -0.1666667        30   -3
  -0.4166667  -0.4166667  -0.4166667         6   -3
  -0.4166667   0.0833333  -0.4166667        26   -1
  -0.6666667   0.3333333  -0.6666667        23   -1
   0.0833333  -0.4166667   0.0833333        20   -1
  -0.1666667  -0.1666667  -0.1666667         3   -3
  -0.4166667   0.0833333   0.0833333        20    6
   0.3333333  -0.6666667   0.8333333        51   -5
   0.0833333  -0.4166667   0.5833333        54   -5
  -0.1666667  -0.1666667   0.3333333        10  -14
  -0.1666667   0.3333333   0.3333333        16   -6
  -0.4166667   0.5833333   0.0833333        54  -15
  -0.6666667   0.8333333  -0.1666667        58   13
   0.0833333   0.0833333   0.5833333        29  -16
   0.0833333   0.5833333   0.5833333        33    7
   0.8333333  -0.1666667  -0.6666667        58   12
   0.5833333   0.0833333  -0.9166667        69    4
  -0.6666667  -0.6666667  -0.1666667        32  -16
  -0.6666667  -0.1666667  -0.1666667        30    7
   0.0833333  -0.9166667   0.5833333        69   22
   0.8333333   0.3333333  -0.6666667        51  -11
  -0.4166667  -0.4166667   0.0833333        26   14
   0.3333333   0.8333333  -0.6666667        51   23
   0.0833333  -0.9166667  -0.9166667        41    6
  -0.1666667  -0.6666667   0.8333333        58    8
   0.5833333   0.5833333  -0.4166667        13  -14
  -0.4166667   0.0833333   0.5833333        54    2
   0.3333333  -0.6666667  -0.6666667        23    6
  -0.9166667   0.5833333   0.0833333        69   19
   0.8333333   0.8333333  -0.1666667        37  -14
   0.8333333  -0.6666667  -0.1666667        58  -19
  -0.4166667   0.5833333   0.5833333        13   -6
  -0.6666667   0.8333333   0.3333333        51  -15
  -0.9166667  -0.9166667   0.0833333        41   14
   0.0833333   0.5833333  -0.9166667        69   -8
  -0.1666667   0.8333333   0.8333333        37   -6
   0.5833333   0.0833333  -0.4166667        54  -11
  -0.6666667  -0.6666667   0.3333333        23   14
   0.0833333   0.5833333  -0.4166667        54   23
  -0.1666667   0.8333333  -0.6666667        58  -22
   0.5833333   0.0833333   0.0833333        29   -7
   0.3333333   0.3333333  -0.1666667        16  -14
  -0.6666667  -0.1666667   0.8333333        58   -4
  -0.9166667   0.0833333   0.5833333        69  -12
  -0.1666667  -0.6666667  -0.6666667        32   -7
   0.5833333   0.5833333   0.0833333        33   16
   0.5833333  -0.9166667   0.0833333        69  -13
  -0.6666667   0.3333333   0.8333333        51    2
   0.0833333  -0.4166667  -0.4166667        26    6
  -0.1666667  -0.1666667  -0.6666667        30   16
   0.8333333  -0.6666667   0.3333333        51   20
   0.5833333  -0.4166667   0.0833333        54   20
   0.3333333  -0.1666667  -0.1666667        10   -6
   0.0833333   0.0833333  -0.4166667        20   14
   0.0000000   0.3333333   0.0000000        19    1
  -0.2500000   0.5833333  -0.2500000        22    1
   0.5000000  -0.1666667   0.5000000        25    1
   0.2500000   0.0833333   0.2500000        17   -3
   0.2500000   0.5833333   0.2500000        22    3
   0.0000000   0.8333333   0.0000000        40    1
   0.7500000   0.0833333   0.7500000        38   -3
   0.5000000   0.3333333   0.5000000        14   -3
  -0.5000000  -0.1666667  -0.5000000        25    3
  -0.7500000   0.0833333  -0.7500000        38   -1
   0.0000000  -0.6666667   0.0000000        35   -1
  -0.2500000  -0.4166667  -0.2500000        11   -3
  -0.2500000   0.0833333  -0.2500000        17   -1
  -0.5000000   0.3333333  -0.5000000        14   -1
   0.2500000  -0.4166667   0.2500000        11   -1
   0.0000000  -0.1666667   0.0000000         8   -1
  -0.2500000   0.0833333   0.2500000        17    2
  -0.5000000   0.3333333  -0.0000000        55   19
  -0.7500000   0.5833333  -0.2500000        52  -20
   0.0000000  -0.1666667   0.5000000        49   17
   0.0000000   0.3333333   0.5000000        55   -6
  -0.2500000   0.5833333   0.2500000        22   -2
  -0.5000000   0.8333333   0.0000000        70   13
  -0.7500000  -0.9166667  -0.2500000        57  -16
   0.2500000   0.5833333   0.7500000        52    7
   0.0000000   0.8333333   0.5000000        70   21
   0.7500000   0.0833333  -0.7500000        38    4
  -0.5000000  -0.6666667   0.0000000        60   14
  -0.5000000  -0.1666667   0.0000000        49    7
   0.2500000  -0.9166667   0.7500000        57   22
   0.0000000  -0.6666667   0.5000000        60   22
  -0.2500000  -0.4166667   0.2500000        11    4
  -0.5000000  -0.1666667   0.5000000        25   -4
   0.2500000  -0.9166667  -0.7500000        57  -21
   1.0000000   0.3333333   0.0000000        71   -5
   0.7500000   0.5833333  -0.2500000        52   17
   0.7500000  -0.9166667  -0.2500000        57   15
  -0.5000000   0.3333333   0.5000000        14    2
  -0.7500000   0.5833333   0.2500000        52   19
  -0.0000000  -0.1666667  -1.0000000        64   17
   0.0000000   0.3333333   1.0000000        71  -17
  -0.2500000   0.5833333   0.7500000        52   -6
   0.5000000  -0.1666667  -0.5000000        25   -2
  -0.7500000  -0.9166667   0.2500000        57   14
   0.2500000   0.5833333  -0.7500000        52   -8
  -1.0000000  -0.1666667   0.0000000        64    5
  -0.2500000  -0.9166667   0.7500000        57  -23
   0.5000000   0.3333333  -0.5000000        14    4
   0.2500000   0.5833333  -0.2500000        22   -4
   0.0000000   0.8333333  -0.5000000        70  -22
  -0.2500000  -0.9166667  -0.7500000        57   24
   0.5000000   0.3333333   0.0000000        55   17
   0.5000000   0.8333333   0.0000000        70  -14
  -0.7500000   0.0833333   0.7500000        38    2
   0.0000000  -0.6666667  -0.5000000        60  -21
   0.7500000   0.5833333   0.2500000        52  -18
   0.7500000  -0.9166667   0.2500000        57  -13
   0.5000000  -0.6666667   0.0000000        60  -13
   0.2500000  -0.4166667  -0.2500000        11    2
   0.0000000  -0.1666667  -0.5000000        49  -18
   0.0000000   0.3333333  -0.5000000        55    5
  -0.2500000   0.5833333  -0.7500000        52    5
   0.5000000  -0.1666667   0.0000000        49    5
   0.2500000   0.0833333  -0.2500000        17    4
  -0.0833333   0.4166667  -0.0833333        20    1
   0.6666667  -0.3333333   0.6666667        23    1
   0.4166667  -0.0833333   0.4166667        26    1
   0.1666667   0.1666667   0.1666667         3    3
   0.1666667   0.6666667   0.1666667        30    3
   0.9166667  -0.0833333   0.9166667        41    1
   0.6666667   0.1666667   0.6666667        32   -3
   0.4166667   0.4166667   0.4166667         6    3
  -0.5833333  -0.0833333  -0.5833333        33    3
  -0.8333333   0.1666667  -0.8333333        37   -1
  -0.0833333  -0.5833333  -0.0833333        29   -3
  -0.3333333  -0.3333333  -0.3333333         5   -3
  -0.3333333   0.1666667  -0.3333333        16   -1
  -0.5833333   0.4166667  -0.5833333        13   -1
   0.1666667  -0.3333333   0.1666667        10   -1
  -0.0833333  -0.0833333  -0.0833333         2   -3
  -0.3333333   0.1666667   0.1666667        10    6
  -0.5833333   0.4166667  -0.0833333        54  -20
  -0.8333333   0.6666667  -0.3333333        51  -20
  -0.0833333  -0.0833333   0.4166667        20  -14
  -0.0833333   0.4166667   0.4166667        26   -6
   0.6666667  -0.3333333  -0.8333333        51   -2
  -0.5833333   0.9166667  -0.0833333        69   13
   0.1666667   0.1666667   0.6666667        30  -16
   0.1666667   0.6666667   0.6666667        32    7
   0.9166667  -0.0833333  -0.5833333        69   12
   0.6666667   0.1666667  -0.8333333        58    4
  -0.5833333  -0.5833333  -0.0833333        33  -16
  -0.5833333  -0.0833333  -0.0833333        29    7
   0.1666667  -0.8333333   0.6666667        58   22
  -0.0833333  -0.5833333   0.4166667        54  -23
  -0.3333333  -0.3333333   0.1666667        16   14
  -0.5833333  -0.0833333   0.4166667        54   11
   0.1666667  -0.8333333  -0.8333333        37    6
  -0.0833333  -0.5833333   0.9166667        69    8
   0.6666667   0.6666667  -0.3333333        23  -14
   0.6666667  -0.8333333  -0.3333333        51   15
   0.4166667  -0.5833333  -0.5833333        13    6
  -0.8333333   0.6666667   0.1666667        58   19
   0.9166667   0.9166667  -0.0833333        41  -14
   0.9166667  -0.5833333  -0.0833333        69  -19
  -0.3333333   0.6666667   0.6666667        23   -6
   0.4166667  -0.0833333  -0.5833333        54   -2
  -0.8333333  -0.8333333   0.1666667        37   14
   0.1666667   0.6666667  -0.8333333        58   -8
  -0.0833333   0.9166667   0.9166667        41   -6
  -0.3333333  -0.8333333   0.6666667        51  -23
  -0.5833333  -0.5833333   0.4166667        13   14
  -0.8333333  -0.3333333   0.6666667        51   11
  -0.0833333   0.9166667  -0.5833333        69  -22
   0.6666667   0.1666667   0.1666667        30   -7
   0.4166667   0.4166667  -0.0833333        26  -14
  -0.5833333  -0.0833333   0.9166667        69   -4
  -0.8333333   0.1666667   0.6666667        58  -12
  -0.0833333  -0.5833333  -0.5833333        33   -7
   0.6666667   0.6666667   0.1666667        32   16
   0.6666667  -0.8333333   0.1666667        58  -13
   0.4166667  -0.5833333  -0.0833333        54   15
   0.1666667  -0.3333333  -0.3333333        16    6
  -0.0833333  -0.0833333  -0.5833333        29   16
  -0.0833333   0.4166667  -0.5833333        54    5
  -0.3333333   0.6666667  -0.8333333        51    5
   0.4166667  -0.0833333  -0.0833333        20   -6
   0.1666667   0.1666667  -0.3333333        10   14
  -0.1666667   0.5000000  -0.1666667        21    1
   0.5833333  -0.2500000   0.5833333        24    1
   0.3333333   0.0000000   0.3333333        27    1
   0.0833333   0.2500000   0.0833333         9    3
   0.0833333   0.7500000   0.0833333        36    3
   0.8333333   0.0000000   0.8333333        42    1
   0.5833333   0.2500000   0.5833333        24   -3
   0.3333333   0.5000000   0.3333333        12    3
  -0.6666667   0.0000000  -0.6666667        39   -1
   0.0833333  -0.7500000   0.0833333        36   -1
  -0.1666667  -0.5000000  -0.1666667        21   -3
  -0.4166667  -0.2500000  -0.4166667        15    3
  -0.4166667   0.2500000  -0.4166667        15   -1
   0.3333333  -0.5000000   0.3333333        12   -1
   0.0833333  -0.2500000   0.0833333         9   -1
  -0.1666667   0.0000000  -0.1666667        18   -1
  -0.4166667   0.2500000   0.0833333        45    6
  -0.6666667   0.5000000  -0.1666667        53  -20
   0.0833333  -0.2500000   0.5833333        50  -20
  -0.1666667   0.0000000   0.3333333        44  -14
  -0.1666667   0.5000000   0.3333333        46   12
   0.5833333  -0.2500000  -0.9166667        66   -2
  -0.6666667   1.0000000  -0.1666667        68   13
   0.0833333   0.2500000   0.5833333        50   18
   0.0833333   0.7500000   0.5833333        59  -24
   0.8333333  -0.0000000  -0.6666667        63  -11
   0.5833333   0.2500000  -0.9166667        66    4
  -0.6666667  -0.5000000  -0.1666667        53   18
  -0.6666667   0.0000000  -0.1666667        56   22
   0.0833333  -0.7500000   0.5833333        59   22
  -0.1666667  -0.5000000   0.3333333        46  -11
  -0.4166667  -0.2500000   0.0833333        45   -8
   0.3333333  -1.0000000  -0.6666667        65  -21
   0.0833333  -0.7500000  -0.9166667        62    6
  -0.1666667  -0.5000000   0.8333333        67    8
   0.5833333   0.7500000  -0.4166667        47  -14
   0.5833333  -0.7500000  -0.4166667        47   15
   0.3333333  -0.5000000  -0.6666667        48    6
  -0.9166667   0.7500000   0.0833333        62   19
   0.8333333   1.0000000  -0.1666667        61  -14
  -0.1666667   0.5000000   0.8333333        67   -6
  -0.4166667   0.7500000   0.5833333        47   21
  -0.6666667  -1.0000000   0.3333333        65   14
  -0.9166667  -0.7500000   0.0833333        62  -17
   0.0833333   0.7500000  -0.9166667        62   -8
  -0.1666667   1.0000000   0.8333333        61   21
  -0.4166667  -0.7500000   0.5833333        47  -23
   0.3333333   0.5000000  -0.6666667        48   -8
  -0.9166667  -0.2500000   0.5833333        66   11
  -0.1666667   1.0000000  -0.6666667        68  -22
   0.5833333   0.2500000   0.0833333        50   -7
   0.3333333   0.5000000  -0.1666667        46   -4
  -0.6666667   0.0000000   0.8333333        63    2
  -0.9166667   0.2500000   0.5833333        66  -12
  -0.1666667  -0.5000000  -0.6666667        53   -7
   0.5833333   0.7500000   0.0833333        59   16
   0.5833333  -0.7500000   0.0833333        59  -13
   0.3333333  -0.5000000  -0.1666667        46    2
   0.0833333  -0.2500000  -0.4166667        45   19
  -0.1666667   0.0000000  -0.6666667        56  -13
  -0.1666667   0.5000000  -0.6666667        53    5
   0.5833333  -0.2500000   0.0833333        50    5
   0.3333333   0.0000000  -0.1666667        44   21
   0.0833333   0.2500000  -0.4166667        45  -17
  -0.1666667   0.3333333   0.0000000        44    1
   0.5833333  -0.4166667   0.7500000        47    1
   0.3333333  -0.1666667   0.5000000        46   13
   0.0833333   0.0833333   0.2500000         9  -16
   0.0833333   0.5833333   0.2500000        50   -9
   0.8333333  -0.1666667   1.0000000        61    1
   0.5833333   0.0833333   0.7500000        59   -3
   0.3333333   0.3333333   0.5000000        12  -16
  -0.6666667  -0.1666667  -0.5000000        53   -9
  -0.9166667   0.0833333  -0.7500000        62   10
  -0.1666667  -0.6666667  -0.0000000        56   -3
  -0.4166667  -0.4166667  -0.2500000        15  -16
  -0.4166667   0.0833333  -0.2500000        45   22
  -0.6666667   0.3333333  -0.5000000        48   10
   0.0833333  -0.4166667   0.2500000        45   10
  -0.1666667  -0.1666667   0.0000000        18   14
  -0.4166667   0.0833333   0.2500000        45  -21
   0.3333333  -0.6666667   1.0000000        65   -5
  -0.9166667   0.5833333  -0.2500000        66  -20
  -0.1666667  -0.1666667   0.5000000        21  -14
  -0.1666667   0.3333333   0.5000000        46  -19
   0.5833333  -0.4166667  -0.7500000        47   -2
  -0.6666667   0.8333333   0.0000000        63   13
   0.0833333   0.0833333   0.7500000        36  -16
   0.0833333   0.5833333   0.7500000        59    7
   0.8333333  -0.1666667  -0.5000000        67   12
   0.5833333   0.0833333  -0.7500000        59    4
  -0.6666667  -0.6666667   0.0000000        39   14
  -0.6666667  -0.1666667  -0.0000000        56    7
   0.0833333  -0.9166667   0.7500000        62   22
  -0.1666667  -0.6666667   0.5000000        53  -23
  -0.4166667  -0.4166667   0.2500000        15   14
  -0.6666667  -0.1666667   0.5000000        53   11
   0.0833333  -0.9166667  -0.7500000        62  -21
  -0.1666667  -0.6666667  -1.0000000        68   -7
   0.5833333   0.5833333  -0.2500000        24  -14
   0.5833333  -0.9166667  -0.2500000        66   15
  -0.6666667   0.3333333   0.5000000        48  -12
  -0.9166667   0.5833333   0.2500000        66   19
   0.8333333   0.8333333   0.0000000        42  -14
   0.8333333  -0.6666667   0.0000000        63  -19
  -0.4166667   0.5833333   0.7500000        47   -6
   0.3333333  -0.1666667  -0.5000000        46  -15
   0.0833333   0.0833333  -0.7500000        36   14
   0.0833333   0.5833333  -0.7500000        59   -8
  -0.1666667   0.8333333  -1.0000000        61    5
   0.5833333   0.0833333  -0.2500000        50  -23
   0.3333333   0.3333333  -0.5000000        12   14
   0.0833333   0.5833333  -0.2500000        50   11
   0.8333333  -0.1666667   0.5000000        67  -10
   0.5833333   0.0833333   0.2500000        50   24
   0.3333333   0.3333333   0.0000000        27  -14
  -0.6666667  -0.1666667  -1.0000000        68    3
  -0.9166667   0.0833333   0.7500000        62  -12
  -0.1666667  -0.6666667  -0.5000000        53   24
   0.5833333   0.5833333   0.2500000        24   16
   0.5833333  -0.9166667   0.2500000        66  -13
  -0.6666667   0.3333333  -1.0000000        65   -1
   0.0833333  -0.4166667  -0.2500000        45  -12
  -0.1666667  -0.1666667  -0.5000000        21   16
  -0.1666667   0.3333333  -0.5000000        46   20
  -0.4166667   0.5833333  -0.7500000        47    5
   0.3333333  -0.1666667   0.0000000        44    5
   0.0833333   0.0833333  -0.2500000         9   14
  -0.2500000   0.4166667  -0.0833333        45    1
   0.5000000  -0.3333333   0.6666667        48    1
   0.2500000  -0.0833333   0.4166667        45   13
  -0.0000000   0.1666667   0.1666667        18   -6
   0.0000000   0.6666667   0.1666667        56   -9
   0.7500000  -0.0833333   0.9166667        62    1
   0.5000000   0.1666667   0.6666667        53   -3
   0.2500000   0.4166667   0.4166667        15    7
  -0.7500000  -0.0833333  -0.5833333        59   -9
  -1.0000000   0.1666667  -0.8333333        61   10
  -0.2500000  -0.5833333  -0.0833333        50   -3
  -0.5000000  -0.3333333  -0.3333333        12    7
  -0.5000000   0.1666667  -0.3333333        46   22
  -0.7500000   0.4166667  -0.5833333        47   10
   0.0000000  -0.3333333   0.1666667        44   10
  -0.2500000  -0.0833333  -0.0833333         9    7
  -0.5000000   0.1666667   0.1666667        21    6
   0.2500000  -0.5833333   0.9166667        66   -5
   1.0000000   0.6666667  -0.3333333        65   17
  -0.2500000  -0.0833333   0.4166667        45  -14
  -0.2500000   0.4166667   0.4166667        15   -6
  -0.5000000   0.6666667   0.1666667        53  -15
  -0.7500000   0.9166667  -0.0833333        62   13
   0.0000000   0.1666667   0.6666667        56   18
   0.0000000   0.6666667   0.6666667        39   -6
   0.7500000  -0.0833333  -0.5833333        59   12
   0.5000000   0.1666667  -0.8333333        67    4
  -0.7500000  -0.5833333  -0.0833333        59   18
  -0.7500000  -0.0833333  -0.0833333        36    7
   0.0000000  -0.8333333   0.6666667        63   22
   0.7500000   0.4166667  -0.5833333        47  -11
  -0.5000000  -0.3333333   0.1666667        46   -8
   0.2500000   0.9166667  -0.5833333        66   23
   0.0000000  -0.8333333  -0.8333333        42    6
  -0.2500000  -0.5833333   0.9166667        66    8
  -0.5000000  -0.3333333   0.6666667        48   -4
  -0.5000000   0.1666667   0.6666667        53    2
   0.2500000  -0.5833333  -0.5833333        24    6
   1.0000000   0.6666667   0.1666667        68  -18
   0.7500000   0.9166667  -0.0833333        62  -14
   0.7500000  -0.5833333  -0.0833333        59  -19
   0.5000000  -0.3333333  -0.3333333        12   -6
   0.2500000  -0.0833333  -0.5833333        50  -15
  -1.0000000  -0.8333333   0.1666667        61  -17
   0.0000000   0.6666667  -0.8333333        63    5
   0.7500000  -0.0833333  -0.0833333        36   -6
   0.5000000   0.1666667  -0.3333333        46  -23
  -0.7500000  -0.5833333   0.4166667        47  -17
   1.0000000  -0.3333333   0.6666667        65  -10
  -0.2500000   0.9166667  -0.5833333        66  -22
   0.5000000   0.1666667   0.1666667        21   -7
   0.2500000   0.4166667  -0.0833333        45   -4
  -0.7500000  -0.0833333   0.9166667        62   -4
   1.0000000   0.1666667   0.6666667        68    9
  -0.2500000  -0.5833333  -0.5833333        24   -7
   0.5000000   0.6666667   0.1666667        53   16
  -0.5000000   0.1666667  -0.8333333        67   -1
   0.2500000  -0.5833333  -0.0833333        50    2
   0.0000000  -0.3333333  -0.3333333        27    6
  -0.2500000  -0.0833333  -0.5833333        50   16
   0.7500000  -0.5833333   0.4166667        47   20
   0.5000000  -0.3333333   0.1666667        46    5
   0.2500000  -0.0833333  -0.0833333         9   -6
   0.0000000   0.1666667  -0.3333333        44  -17
  -0.3333333   0.5000000  -0.1666667        46    1
  -0.5833333   0.7500000  -0.4166667        47   13
   0.1666667   0.0000000   0.3333333        44   13
  -0.0833333   0.2500000   0.0833333         9   -2
  -0.0833333   0.7500000   0.0833333        36   -2
   0.6666667   0.0000000   0.8333333        63    1
  -0.5833333  -0.7500000  -0.4166667        47  -16
   0.1666667   0.5000000   0.3333333        46   -9
  -0.8333333   0.0000000  -0.6666667        63   -9
  -0.0833333  -0.7500000   0.0833333        36    4
  -0.3333333  -0.5000000  -0.1666667        46   -3
   0.4166667   0.7500000   0.5833333        47  -24
   0.4166667  -0.7500000   0.5833333        47   22
   0.1666667  -0.5000000   0.3333333        46   10
  -0.0833333  -0.2500000   0.0833333         9    4
  -0.3333333   0.0000000  -0.1666667        44   22
  -0.5833333   0.2500000   0.0833333        50    6
   0.1666667  -0.5000000   0.8333333        67   -5
  -0.0833333  -0.2500000   0.5833333        50   17
  -0.3333333   0.0000000   0.3333333        27    2
  -0.3333333   0.5000000   0.3333333        12   -2
  -0.5833333   0.7500000   0.0833333        59  -15
  -0.8333333   1.0000000  -0.1666667        61   13
  -0.0833333   0.2500000   0.5833333        50  -19
  -0.0833333   0.7500000   0.5833333        59   21
   0.6666667   0.0000000  -0.6666667        39   -2
  -0.5833333  -0.7500000   0.0833333        59   14
   0.1666667   0.5000000   0.8333333        67    7
   0.1666667  -1.0000000   0.8333333        61   22
  -0.0833333  -0.7500000   0.5833333        59  -23
  -0.3333333  -0.5000000   0.3333333        12    4
  -0.5833333  -0.2500000   0.0833333        50   -8
   0.1666667  -1.0000000  -0.6666667        68  -21
  -0.0833333  -0.7500000  -0.9166667        62   -7
   0.6666667   0.5000000  -0.1666667        53   17
  -0.5833333  -0.2500000   0.5833333        24   -4
  -0.5833333   0.2500000   0.5833333        24    2
   0.1666667  -0.5000000  -0.6666667        53    6
   0.9166667   0.7500000   0.0833333        62  -18
   0.6666667   1.0000000  -0.1666667        68  -14
   0.6666667  -0.5000000  -0.1666667        53  -19
   0.4166667  -0.2500000  -0.4166667        15   -2
   0.1666667   0.0000000  -0.6666667        56   14
   0.9166667  -0.7500000   0.0833333        62   20
  -0.0833333   0.7500000  -0.9166667        62    5
   0.6666667  -0.0000000  -0.1666667        56   21
   0.4166667   0.2500000  -0.4166667        15    4
   0.1666667   0.5000000  -0.6666667        53   -8
   0.9166667  -0.2500000   0.5833333        66  -10
  -0.3333333   1.0000000  -0.6666667        65  -22
   0.4166667   0.2500000   0.0833333        45   -7
   0.1666667   0.5000000  -0.1666667        21   -4
  -0.8333333   0.0000000   0.8333333        42    2
   0.9166667   0.2500000   0.5833333        66    9
  -0.3333333  -0.5000000  -0.6666667        48   -7
  -0.5833333  -0.2500000  -0.9166667        66    3
  -0.5833333   0.2500000  -0.9166667        66   -1
   0.1666667  -0.5000000  -0.1666667        21    2
  -0.0833333  -0.2500000  -0.4166667        45  -18
   0.6666667  -1.0000000   0.3333333        65  -13
  -0.3333333   0.5000000  -0.6666667        48    5
   0.4166667  -0.2500000   0.0833333        45    5
   0.1666667  -0.0000000  -0.1666667        18   -2
  -0.0833333   0.2500000  -0.4166667        45   20
  -0.1666667   0.5000000   0.0000000        49    1
   0.5833333  -0.2500000   0.7500000        52    1
   0.3333333   0.0000000   0.5000000        55    1
   0.0833333   0.2500000   0.2500000        17    7
  -0.9166667  -0.2500000  -0.7500000        57   -9
  -0.1666667  -1.0000000   0.0000000        64    1
   0.5833333   0.2500000   0.7500000        52   -3
   0.3333333   0.5000000   0.5000000        14    7
  -0.6666667   0.0000000  -0.5000000        60   -9
  -0.9166667   0.2500000  -0.7500000        57   10
  -0.1666667  -0.5000000   0.0000000        49   -3
  -0.4166667  -0.2500000  -0.2500000        11    7
  -0.4166667   0.2500000  -0.2500000        11   -5
   0.3333333  -0.5000000   0.5000000        14   -5
   0.0833333  -0.2500000   0.2500000        17   -5
  -0.1666667   0.0000000   0.0000000         8   -5
  -0.4166667   0.2500000   0.2500000        11    6
  -0.6666667   0.5000000   0.0000000        60   19
  -0.9166667   0.7500000  -0.2500000        57  -20
  -0.1666667   0.0000000   0.5000000        49  -14
  -0.1666667   0.5000000   0.5000000        25   -6
   0.5833333  -0.2500000  -0.7500000        52   -2
   0.3333333   0.0000000  -1.0000000        71   13
  -0.9166667  -0.7500000  -0.2500000        57   18
   0.0833333   0.7500000   0.7500000        38    7
   0.8333333   0.0000000  -0.5000000        70  -11
   0.5833333   0.2500000  -0.7500000        52    4
  -0.6666667  -0.5000000   0.0000000        60  -17
  -0.6666667   0.0000000   0.0000000        35   -5
   0.0833333  -0.7500000   0.7500000        38   -5
  -0.1666667  -0.5000000   0.5000000        25    8
  -0.4166667  -0.2500000   0.2500000        11   -8
  -0.6666667   0.0000000   0.5000000        60   11
   0.0833333  -0.7500000  -0.7500000        38    6
   0.8333333   0.5000000   0.0000000        70   17
   0.5833333   0.7500000  -0.2500000        52  -14
   0.5833333  -0.7500000  -0.2500000        52   15
   0.3333333  -0.5000000  -0.5000000        14    6
  -0.9166667   0.7500000   0.2500000        57   19
  -0.1666667   0.0000000   1.0000000        64  -13
   0.8333333  -0.5000000   0.0000000        70  -19
   0.5833333  -0.2500000  -0.2500000        22   -6
   0.3333333   0.0000000  -0.5000000        55   -2
  -0.9166667  -0.7500000   0.2500000        57  -17
   0.0833333   0.7500000  -0.7500000        38   -8
   0.8333333   0.0000000   0.0000000        40    5
   0.5833333   0.2500000  -0.2500000        22    8
   0.3333333   0.5000000  -0.5000000        14   -8
  -0.9166667  -0.2500000   0.7500000        57   11
   0.8333333   0.0000000   0.5000000        70    9
   0.5833333   0.2500000   0.2500000        22   -7
   0.3333333   0.5000000   0.0000000        55  -14
   0.3333333   1.0000000   0.0000000        71   -1
  -0.9166667   0.2500000   0.7500000        57  -12
  -0.1666667  -0.5000000  -0.5000000        25   -7
   0.5833333   0.7500000   0.2500000        52   16
   0.5833333  -0.7500000   0.2500000        52  -13
   0.3333333  -0.5000000  -0.0000000        55  -13
   0.0833333  -0.2500000  -0.2500000        17    6
  -0.1666667   0.0000000  -0.5000000        49  -13
  -0.1666667   0.5000000  -0.5000000        25    5
   0.5833333  -0.2500000   0.2500000        22    5
   0.3333333   0.0000000   0.0000000        19    5
   0.0833333   0.2500000  -0.2500000        17   -8
  -0.2500000   0.5833333  -0.0833333        50    1
   0.5000000  -0.1666667   0.6666667        53    1
   0.2500000   0.0833333   0.4166667        45  -16
   0.0000000   0.3333333   0.1666667        44   -9
  -1.0000000  -0.1666667  -0.8333333        61   -9
   0.7500000   0.0833333   0.9166667        62   -3
   0.5000000   0.3333333   0.6666667        48   -3
  -0.7500000  -0.4166667  -0.5833333        47   -9
  -0.7500000   0.0833333  -0.5833333        59   10
   0.0000000  -0.6666667   0.1666667        56   10
  -0.2500000  -0.4166667  -0.0833333        45   -3
  -0.5000000  -0.1666667  -0.3333333        46  -24
  -0.5000000   0.3333333  -0.3333333        12   -5
   0.2500000  -0.4166667   0.4166667        15   -5
   0.0000000  -0.1666667   0.1666667        18   -5
  -0.2500000   0.0833333  -0.0833333         9   -5
  -0.5000000   0.3333333   0.1666667        46    6
  -0.7500000   0.5833333  -0.0833333        59  -20
  -0.0000000  -0.1666667   0.6666667        56   17
  -0.2500000   0.0833333   0.4166667        45   15
   0.7500000  -0.4166667  -0.5833333        47   12
   0.5000000  -0.1666667  -0.8333333        67   -2
  -0.7500000  -0.9166667  -0.0833333        62  -16
  -1.0000000  -0.6666667  -0.3333333        65   18
  -0.0000000   0.8333333   0.6666667        63   21
   0.7500000   0.0833333  -0.5833333        59  -11
  -0.5000000  -0.6666667   0.1666667        53   14
   0.2500000   0.5833333   0.9166667        66    7
  -0.7500000   0.0833333  -0.0833333        36   -5
   0.0000000  -0.6666667   0.6666667        39   -5
  -0.2500000  -0.4166667   0.4166667        15    8
  -0.5000000  -0.1666667   0.1666667        21   -8
   0.2500000  -0.9166667  -0.5833333        66  -21
   0.0000000  -0.6666667  -0.8333333        63    6
   0.7500000   0.5833333  -0.0833333        59   17
  -0.5000000  -0.1666667   0.6666667        53   -4
  -0.5000000   0.3333333   0.6666667        48    2
  -0.7500000   0.5833333   0.4166667        47   19
   1.0000000   0.8333333   0.1666667        61  -18
   0.7500000  -0.9166667  -0.0833333        62   15
  -0.2500000   0.5833333   0.9166667        66   -6
   0.5000000  -0.1666667  -0.3333333        46   21
   0.2500000   0.0833333  -0.5833333        50   14
  -1.0000000  -0.6666667   0.1666667        68  -17
   0.0000000   0.8333333  -0.8333333        42    5
   0.7500000   0.0833333  -0.0833333        36    8
   0.5000000   0.3333333  -0.3333333        12    8
   0.2500000   0.5833333  -0.5833333        24   -8
   1.0000000  -0.1666667   0.6666667        68  -10
  -0.2500000  -0.9166667  -0.5833333        66   24
   0.5000000   0.3333333   0.1666667        46   -7
   0.2500000   0.5833333  -0.0833333        50   -4
  -0.7500000   0.0833333   0.9166667        62    2
   1.0000000   0.3333333   0.6666667        65    9
   0.7500000   0.5833333   0.4166667        47  -18
  -0.5000000  -0.1666667  -0.8333333        67    3
   0.5000000  -0.6666667   0.1666667        53  -13
   0.2500000  -0.4166667  -0.0833333        45    2
   0.0000000  -0.1666667  -0.3333333        44  -18
  -0.2500000   0.0833333  -0.5833333        50  -13
  -0.2500000   0.5833333  -0.5833333        24    5
   0.5000000  -0.1666667   0.1666667        21    5
   0.2500000   0.0833333  -0.0833333         9    8
   0.0000000   0.3333333  -0.3333333        27    5
   0.6666667  -0.3333333   0.8333333        51    1
   0.4166667  -0.0833333   0.5833333        54    1
   0.1666667   0.1666667   0.3333333        10  -16
  -0.0833333   0.4166667   0.0833333        20   -2
   0.9166667  -0.0833333  -0.9166667        41   -2
   0.6666667   0.1666667   0.8333333        58   -3
  -0.5833333  -0.5833333  -0.4166667        13  -16
  -0.8333333  -0.3333333  -0.6666667        51   -9
  -0.8333333   0.1666667  -0.6666667        58   10
  -0.0833333  -0.5833333   0.0833333        29    4
  -0.3333333  -0.3333333  -0.1666667        16  -16
  -0.5833333  -0.0833333  -0.4166667        54   -9
   0.4166667  -0.5833333   0.5833333        13   -5
   0.1666667  -0.3333333   0.3333333        16   -5
  -0.0833333  -0.0833333   0.0833333         2    4
  -0.3333333   0.1666667  -0.1666667        10   -5
  -0.5833333   0.4166667   0.0833333        54   19
  -0.8333333   0.6666667  -0.1666667        58  -20
  -0.0833333  -0.0833333   0.5833333        29  -14
  -0.3333333   0.1666667   0.3333333        16    2
   0.6666667  -0.3333333  -0.6666667        23   -2
  -0.5833333   0.9166667   0.0833333        69  -15
  -0.8333333  -0.8333333  -0.1666667        37  -16
  -0.0833333   0.4166667   0.5833333        54   -6
  -0.0833333   0.9166667   0.5833333        69   21
   0.6666667   0.1666667  -0.6666667        32    4
  -0.5833333  -0.5833333   0.0833333        33   14
   0.1666667   0.6666667   0.8333333        58    7
   0.1666667  -0.8333333   0.8333333        37   -5
  -0.0833333  -0.5833333   0.5833333        33    8
  -0.3333333  -0.3333333   0.3333333         5    4
  -0.5833333  -0.0833333   0.0833333        29   -8
   0.1666667  -0.8333333  -0.6666667        58  -21
  -0.0833333  -0.5833333  -0.9166667        69   -7
   0.6666667   0.6666667  -0.1666667        32  -14
  -0.5833333  -0.0833333   0.5833333        33   -4
  -0.5833333   0.4166667   0.5833333        13    2
  -0.8333333   0.6666667   0.3333333        51   19
   0.9166667   0.9166667   0.0833333        41   16
   0.6666667  -0.8333333  -0.1666667        58   15
  -0.3333333   0.6666667   0.8333333        51   -6
   0.4166667  -0.0833333  -0.4166667        26   -2
   0.1666667   0.1666667  -0.6666667        30   14
   0.9166667  -0.5833333   0.0833333        69   20
  -0.0833333   0.9166667  -0.9166667        41    5
   0.6666667   0.1666667  -0.1666667        30    8
   0.4166667   0.4166667  -0.4166667         6   -4
   0.1666667   0.6666667  -0.6666667        32   -8
   0.9166667  -0.0833333   0.5833333        69  -10
  -0.3333333  -0.8333333  -0.6666667        51   24
   0.4166667   0.4166667   0.0833333        26   16
   0.1666667   0.6666667  -0.1666667        30   -4
  -0.8333333   0.1666667   0.8333333        37    2
  -0.0833333  -0.5833333  -0.4166667        54   24
   0.6666667   0.6666667   0.3333333        23   16
  -0.5833333  -0.0833333  -0.9166667        69    3
   0.4166667  -0.5833333   0.0833333        54  -13
   0.1666667  -0.3333333  -0.1666667        10    2
  -0.0833333  -0.0833333  -0.4166667        20   16
   0.6666667  -0.8333333   0.3333333        51  -13
  -0.3333333   0.6666667  -0.6666667        23    5
   0.4166667  -0.0833333   0.0833333        20    5
   0.1666667   0.1666667  -0.1666667         3   -4
  -0.0833333   0.4166667  -0.4166667        26    5
  -0.1666667   0.6666667  -0.0000000        56    1
   0.5833333  -0.0833333   0.7500000        59    1
   0.3333333   0.1666667   0.5000000        46  -16
   0.0833333   0.4166667   0.2500000        45   -9
  -0.9166667  -0.0833333  -0.7500000        62   -9
   0.8333333   0.1666667   1.0000000        61   -3
   0.5833333   0.4166667   0.7500000        47   -3
  -0.6666667  -0.3333333  -0.5000000        48   -9
  -0.6666667   0.1666667  -0.5000000        53   10
   0.0833333  -0.5833333   0.2500000        50   10
  -0.1666667  -0.3333333   0.0000000        44   -3
  -0.4166667  -0.0833333  -0.2500000        45  -24
  -0.4166667   0.4166667  -0.2500000        15   13
   0.3333333  -0.3333333   0.5000000        12   13
   0.0833333  -0.0833333   0.2500000         9   13
  -0.1666667   0.1666667  -0.0000000        18   13
  -0.4166667   0.4166667   0.2500000        15  -15
  -0.6666667   0.6666667   0.0000000        39   13
   0.0833333  -0.0833333   0.7500000        36   13
  -0.1666667   0.1666667   0.5000000        21   15
  -0.1666667   0.6666667   0.5000000        53   21
   0.5833333  -0.0833333  -0.7500000        59   -2
  -0.6666667  -0.8333333   0.0000000        63   14
  -0.9166667  -0.5833333  -0.2500000        66   18
   0.0833333   0.9166667   0.7500000        62  -24
   0.8333333   0.1666667  -0.5000000        67  -11
   0.5833333   0.4166667  -0.7500000        47    4
   0.3333333   0.6666667   1.0000000        65    7
  -0.6666667   0.1666667  -0.0000000        56   -5
   0.0833333  -0.5833333   0.7500000        59   -5
  -0.1666667  -0.3333333   0.5000000        46   17
  -0.4166667  -0.0833333   0.2500000        45   23
  -0.6666667   0.1666667   0.5000000        53  -12
   0.0833333  -0.5833333  -0.7500000        59    6
   0.8333333   0.6666667   0.0000000        63   17
   0.5833333   0.9166667  -0.2500000        66  -14
   0.5833333  -0.5833333  -0.2500000        24   15
   0.3333333  -0.3333333  -0.5000000        12  -15
   0.0833333  -0.0833333  -0.7500000        36  -15
   0.8333333  -0.8333333   0.0000000        42  -13
  -0.1666667   0.6666667  -1.0000000        68    5
   0.5833333  -0.0833333  -0.2500000        50   21
   0.3333333   0.1666667  -0.5000000        46   14
  -0.9166667  -0.5833333   0.2500000        66  -17
   0.0833333   0.9166667  -0.7500000        62   23
  -0.1666667  -0.8333333  -1.0000000        61   -7
  -0.4166667  -0.5833333   0.7500000        47    8
  -0.6666667  -0.3333333   0.5000000        48   11
  -0.9166667  -0.0833333   0.7500000        62   11
   0.8333333   0.1666667   0.5000000        67    9
  -0.4166667  -0.5833333  -0.7500000        47   -7
  -0.6666667  -0.3333333  -1.0000000        65    3
  -0.6666667   0.1666667  -1.0000000        68   -1
   0.0833333  -0.5833333  -0.2500000        50  -12
  -0.1666667  -0.3333333  -0.5000000        46  -18
   0.5833333   0.9166667   0.2500000        66   16
   0.5833333  -0.5833333   0.2500000        24  -13
   0.3333333  -0.3333333   0.0000000        27  -13
   0.0833333  -0.0833333  -0.2500000         9  -15
  -0.1666667   0.1666667  -0.5000000        21  -13
  -0.1666667   0.6666667  -0.5000000        53  -22
   0.5833333  -0.0833333   0.2500000        50  -22
   0.3333333   0.1666667   0.0000000        44   -7
   0.0833333   0.4166667  -0.2500000        45   11
   0.7500000  -0.2500000   0.9166667        57    1
   0.5000000   0.0000000   0.6666667        60    1
   0.2500000   0.2500000   0.4166667        11  -16
   0.0000000   0.5000000   0.1666667        49   -9
   0.0000000  -1.0000000   0.1666667        64   -9
   0.7500000   0.2500000   0.9166667        57   -3
  -0.5000000  -0.5000000  -0.3333333        14  -16
  -0.7500000  -0.2500000  -0.5833333        52   -9
  -0.7500000   0.2500000  -0.5833333        52   10
   0.0000000  -0.5000000   0.1666667        49   10
  -0.2500000  -0.2500000  -0.0833333        17  -16
  -0.5000000   0.0000000  -0.3333333        55   -9
  -0.5000000   0.5000000  -0.3333333        14   13
   0.2500000  -0.2500000   0.4166667        11   13
   0.0000000   0.0000000   0.1666667         8   13
  -0.2500000   0.2500000  -0.0833333        17   13
  -0.5000000   0.5000000   0.1666667        25  -15
  -0.7500000   0.7500000  -0.0833333        38   13
   0.0000000   0.0000000   0.6666667        35   13
  -0.2500000   0.2500000   0.4166667        11   15
   0.7500000  -0.2500000  -0.5833333        52   12
   0.5000000   0.0000000  -0.8333333        70   -2
  -0.7500000  -0.7500000  -0.0833333        38  -16
  -0.0000000   0.5000000   0.6666667        60   -6
  -1.0000000   0.0000000  -0.3333333        71   21
   0.7500000   0.2500000  -0.5833333        52  -11
  -0.5000000  -0.5000000   0.1666667        25   14
   0.2500000   0.7500000   0.9166667        57    7
   0.2500000  -0.7500000   0.9166667        57   -5
   0.0000000  -0.5000000   0.6666667        60   -5
  -0.2500000  -0.2500000   0.4166667        11  -14
  -0.5000000   0.0000000   0.1666667        49  -21
   0.2500000  -0.7500000  -0.5833333        52  -21
  -0.0000000  -0.5000000  -0.8333333        70    6
   0.7500000   0.7500000  -0.0833333        38  -14
  -0.5000000   0.0000000   0.6666667        60    2
   0.5000000  -0.5000000  -0.3333333        14   15
   0.2500000  -0.2500000  -0.5833333        22  -15
   0.0000000   0.0000000  -0.8333333        40  -13
   0.7500000  -0.7500000  -0.0833333        38   15
  -0.2500000   0.7500000   0.9166667        57   -6
   0.5000000  -0.0000000  -0.3333333        55  -11
   0.2500000   0.2500000  -0.5833333        22   14
   0.0000000   0.5000000  -0.8333333        70    5
   1.0000000   0.0000000   0.1666667        64  -21
  -0.2500000  -0.7500000   0.9166667        57    8
   0.5000000   0.5000000  -0.3333333        14  -14
   0.2500000   0.7500000  -0.5833333        52   23
   0.0000000   1.0000000  -0.3333333        71    9
  -0.2500000  -0.7500000  -0.5833333        52   24
   0.5000000   0.5000000   0.1666667        25   16
  -0.7500000  -0.2500000   0.9166667        57   -4
  -0.7500000   0.2500000   0.9166667        57    2
  -0.0000000  -0.5000000  -0.3333333        55  -21
  -0.2500000  -0.2500000  -0.5833333        22   16
  -0.5000000   0.0000000  -0.8333333        70   -1
   0.5000000  -0.5000000   0.1666667        25  -13
   0.2500000  -0.2500000  -0.0833333        17   15
   0.0000000   0.0000000  -0.3333333        19  -13
  -0.2500000   0.2500000  -0.5833333        22  -13
  -0.2500000   0.7500000  -0.5833333        52  -22
   0.5000000   0.0000000   0.1666667        49  -22
   0.2500000   0.2500000  -0.0833333        17  -14
   0.0000000   0.5000000  -0.3333333        55  -22
   0.6666667  -0.1666667   0.8333333        58    1
   0.4166667   0.0833333   0.5833333        54   -3
   0.1666667   0.3333333   0.3333333        16    7
  -0.0833333   0.5833333   0.0833333        29   -2
   0.9166667   0.0833333  -0.9166667        41    4
   0.6666667   0.3333333   0.8333333        51   -3
   0.4166667   0.5833333   0.5833333        13    7
  -0.8333333  -0.1666667  -0.6666667        58   -9
  -0.8333333   0.3333333  -0.6666667        51   10
  -0.0833333  -0.4166667   0.0833333        20    4
  -0.3333333  -0.1666667  -0.1666667        10    7
  -0.5833333   0.0833333  -0.4166667        54   10
  -0.5833333   0.5833333  -0.4166667        13   13
   0.1666667  -0.1666667   0.3333333        10   13
  -0.0833333   0.0833333   0.0833333         2   -2
  -0.3333333   0.3333333  -0.1666667        16   13
  -0.5833333   0.5833333   0.0833333        33  -15
  -0.8333333   0.8333333  -0.1666667        37   13
  -0.0833333   0.0833333   0.5833333        29   15
  -0.3333333   0.3333333   0.3333333         5   -2
   0.6666667  -0.1666667  -0.6666667        32   -2
  -0.5833333  -0.9166667   0.0833333        69   14
  -0.8333333  -0.6666667  -0.1666667        58   18
  -0.0833333   0.5833333   0.5833333        33   -6
  -0.0833333  -0.9166667   0.5833333        69  -23
   0.6666667   0.3333333  -0.6666667        23    4
  -0.5833333  -0.4166667   0.0833333        54  -17
   0.1666667   0.8333333   0.8333333        37    7
   0.1666667  -0.6666667   0.8333333        58   -5
  -0.0833333  -0.4166667   0.5833333        54    8
  -0.3333333  -0.1666667   0.3333333        16   -4
  -0.5833333   0.0833333   0.0833333        29    6
   0.1666667  -0.6666667  -0.6666667        32    6
   0.9166667   0.5833333   0.0833333        69  -18
   0.6666667   0.8333333  -0.1666667        58  -14
  -0.5833333   0.0833333   0.5833333        33    2
   0.4166667  -0.4166667  -0.4166667         6    2
   0.1666667  -0.1666667  -0.6666667        30  -15
   0.9166667  -0.9166667   0.0833333        41  -13
   0.6666667  -0.6666667  -0.1666667        32   15
   0.6666667  -0.1666667  -0.1666667        30   -6
   0.4166667   0.0833333  -0.4166667        26    4
  -0.8333333  -0.6666667   0.3333333        51  -17
  -0.0833333   0.5833333  -0.9166667        69    5
  -0.0833333  -0.9166667  -0.9166667        41   -7
  -0.3333333  -0.6666667   0.8333333        51    8
  -0.5833333  -0.4166667   0.5833333        13   -4
   0.1666667   0.8333333  -0.6666667        58   23
   0.9166667   0.0833333   0.5833333        69    9
  -0.3333333  -0.6666667  -0.6666667        23   -7
   0.4166667   0.5833333   0.0833333        54   16
  -0.8333333  -0.1666667   0.8333333        37   -4
   0.1666667  -0.6666667  -0.1666667        30    2
  -0.0833333  -0.4166667  -0.4166667        26   -7
   0.6666667   0.8333333   0.3333333        51   16
  -0.5833333   0.0833333  -0.9166667        69   -1
   0.4166667  -0.4166667   0.0833333        26  -13
   0.1666667  -0.1666667  -0.1666667         3    2
  -0.0833333   0.0833333  -0.4166667        20  -13
   0.6666667  -0.6666667   0.3333333        23  -13
  -0.3333333   0.8333333  -0.6666667        51  -22
   0.4166667   0.0833333   0.0833333        20   -7
   0.1666667   0.3333333  -0.1666667        10   -4
  -0.0833333   0.5833333  -0.4166667        54  -22
   0.6666667  -0.3333333   1.0000000        65    1
  -0.5833333   0.9166667  -0.2500000        66   13
   0.1666667   0.1666667   0.5000000        21  -16
  -0.0833333   0.4166667   0.2500000        45   12
   0.9166667  -0.0833333  -0.7500000        62   12
   0.6666667   0.1666667   1.0000000        68   -3
  -0.5833333  -0.5833333  -0.2500000        24  -16
   0.1666667   0.6666667   0.5000000        53  -24
  -0.8333333   0.1666667  -0.5000000        67   10
  -0.0833333  -0.5833333   0.2500000        50  -11
  -0.3333333  -0.3333333   0.0000000        27   14
  -0.5833333  -0.0833333  -0.2500000        50  -24
   0.4166667  -0.5833333   0.7500000        47   -5
   0.1666667  -0.3333333   0.5000000        46  -20
  -0.0833333  -0.0833333   0.2500000         9  -14
  -0.3333333   0.1666667   0.0000000        44   -5
   0.4166667  -0.5833333  -0.7500000        47    6
  -0.8333333   0.6666667   0.0000000        63   19
  -0.0833333  -0.0833333   0.7500000        36  -14
  -0.3333333   0.1666667   0.5000000        46   15
   0.6666667  -0.3333333  -0.5000000        48   12
  -0.5833333   0.9166667   0.2500000        66  -15
  -0.8333333  -0.8333333   0.0000000        42   14
   0.9166667  -0.5833333  -0.2500000        66  -19
  -0.0833333   0.9166667   0.7500000        62   21
   0.6666667   0.1666667  -0.5000000        53  -11
  -0.5833333  -0.5833333   0.2500000        24   14
   0.1666667   0.6666667   1.0000000        68    7
   0.1666667  -0.8333333   1.0000000        61   -5
  -0.0833333  -0.5833333   0.7500000        59    8
  -0.3333333  -0.3333333   0.5000000        12  -14
  -0.5833333  -0.0833333   0.2500000        50   23
  -0.8333333   0.1666667   0.5000000        67  -12
  -0.0833333  -0.5833333  -0.7500000        59   -7
   0.6666667   0.6666667   0.0000000        39  -14
  -0.5833333  -0.0833333   0.7500000        59   -4
  -0.5833333   0.4166667   0.7500000        47    2
   0.1666667  -0.3333333  -0.5000000        46   19
  -0.0833333  -0.0833333  -0.7500000        36   16
   0.6666667  -0.8333333   0.0000000        63  -13
  -0.3333333   0.6666667  -1.0000000        65    5
   0.4166667  -0.0833333  -0.2500000        45   21
   0.1666667   0.1666667  -0.5000000        21   14
   0.9166667  -0.5833333   0.2500000        66   20
  -0.0833333   0.9166667  -0.7500000        62  -22
   0.6666667   0.1666667   0.0000000        56   -7
   0.4166667   0.4166667  -0.2500000        15  -14
   0.1666667   0.6666667  -0.5000000        53   23
   0.9166667  -0.0833333   0.7500000        62  -10
   0.6666667   0.1666667   0.5000000        53    9
   0.4166667   0.4166667   0.2500000        15   16
   0.1666667   0.6666667   0.0000000        56    3
  -0.8333333   0.1666667  -1.0000000        61   -1
  -0.0833333  -0.5833333  -0.2500000        50    9
  -0.3333333  -0.3333333  -0.5000000        12   16
  -0.5833333  -0.0833333  -0.7500000        59    3
  -0.5833333   0.4166667  -0.7500000        47   -1
   0.1666667  -0.3333333   0.0000000        44   -1
  -0.0833333  -0.0833333  -0.2500000         9   16
  -0.3333333   0.1666667  -0.5000000        46  -13
   0.6666667  -0.3333333   0.5000000        48  -10
   0.4166667  -0.0833333   0.2500000        45  -22
   0.1666667   0.1666667  -0.0000000        18  -14
  -0.0833333   0.4166667  -0.2500000        45  -10
   0.5833333  -0.2500000   0.9166667        66    1
  -0.6666667   1.0000000  -0.3333333        65   13
   0.0833333   0.2500000   0.4166667        45   18
  -0.1666667   0.5000000   0.1666667        21   -2
   0.8333333   0.0000000  -0.8333333        42   -2
   0.5833333   0.2500000   0.9166667        66   -3
   0.3333333   0.5000000   0.6666667        48    7
  -0.9166667  -0.2500000  -0.5833333        66   -9
  -0.9166667   0.2500000  -0.5833333        66   10
  -0.1666667  -0.5000000   0.1666667        21    4
  -0.4166667  -0.2500000  -0.0833333        45    7
   0.3333333  -1.0000000   0.6666667        65   22
   0.3333333  -0.5000000   0.6666667        48   -5
   0.0833333  -0.2500000   0.4166667        45  -20
  -0.1666667   0.0000000   0.1666667        18    2
  -0.4166667   0.2500000  -0.0833333        45   -5
  -0.6666667   0.5000000   0.1666667        53   19
  -0.9166667   0.7500000  -0.0833333        62  -20
  -0.1666667  -0.0000000   0.6666667        56  -14
  -0.4166667   0.2500000   0.4166667        15    2
   0.5833333  -0.2500000  -0.5833333        24   -2
  -0.6666667  -1.0000000   0.1666667        68   14
  -0.9166667  -0.7500000  -0.0833333        62   18
  -0.1666667   0.5000000   0.6666667        53   -6
  -0.1666667   1.0000000   0.6666667        68   21
   0.5833333   0.2500000  -0.5833333        24    4
  -0.6666667  -0.5000000   0.1666667        53  -17
   0.0833333   0.7500000   0.9166667        62    7
   0.0833333  -0.7500000   0.9166667        62   -5
  -0.1666667  -0.5000000   0.6666667        53    8
  -0.4166667  -0.2500000   0.4166667        15   -4
  -0.6666667   0.0000000   0.1666667        56  -21
   0.0833333  -0.7500000  -0.5833333        59  -21
  -0.1666667  -0.5000000  -0.8333333        67   -7
   0.5833333   0.7500000  -0.0833333        59  -14
  -0.6666667   0.0000000   0.6666667        39    2
   0.3333333  -0.5000000  -0.3333333        12    2
   0.0833333  -0.2500000  -0.5833333        50   19
   0.8333333  -1.0000000   0.1666667        61  -13
   0.5833333  -0.7500000  -0.0833333        59   15
   0.5833333  -0.2500000  -0.0833333        50   -6
   0.3333333   0.0000000  -0.3333333        27   -2
   0.0833333   0.2500000  -0.5833333        50  -17
  -0.1666667   0.5000000  -0.8333333        67    5
  -0.1666667   1.0000000  -0.8333333        61  -22
   0.5833333   0.2500000  -0.0833333        50    8
   0.3333333   0.5000000  -0.3333333        12   -4
   0.0833333   0.7500000  -0.5833333        59   23
   0.8333333   0.0000000   0.6666667        63    9
  -0.4166667  -0.7500000  -0.5833333        47   24
   0.3333333   0.5000000   0.1666667        46    3
   0.0833333   0.7500000  -0.0833333        36   -4
   0.0833333  -0.7500000  -0.0833333        36    2
  -0.1666667  -0.5000000  -0.3333333        46    9
   0.5833333   0.7500000   0.4166667        47   16
  -0.6666667   0.0000000  -0.8333333        63   -1
   0.3333333  -0.5000000   0.1666667        46   -1
   0.0833333  -0.2500000  -0.0833333         9    2
  -0.1666667   0.0000000  -0.3333333        44  -13
   0.5833333  -0.7500000   0.4166667        47  -13
  -0.4166667   0.7500000  -0.5833333        47  -22
   0.3333333   0.0000000   0.1666667        44  -22
   0.0833333   0.2500000  -0.0833333         9   -4
  -0.1666667   0.5000000  -0.3333333        46  -10
   0.5000000  -0.1666667   0.8333333        67    1
   0.2500000   0.0833333   0.5833333        50  -16
   0.0000000   0.3333333   0.3333333        27   -6
  -0.2500000   0.5833333   0.0833333        50   -2
   0.7500000   0.0833333  -0.9166667        62    4
  -0.5000000  -0.6666667  -0.1666667        53  -16
   0.2500000   0.5833333   0.5833333        24    7
  -1.0000000  -0.1666667  -0.6666667        68   -9
  -1.0000000   0.3333333  -0.6666667        65   10
  -0.2500000  -0.4166667   0.0833333        45    4
  -0.5000000  -0.1666667  -0.1666667        21    7
   0.2500000  -0.9166667   0.5833333        66   22
  -0.7500000   0.5833333  -0.4166667        47  -20
   0.0000000  -0.1666667   0.3333333        44   17
  -0.2500000   0.0833333   0.0833333         9    6
  -0.5000000   0.3333333  -0.1666667        46   -5
  -0.7500000   0.5833333   0.0833333        59   19
   1.0000000   0.8333333  -0.1666667        61   17
  -0.2500000   0.0833333   0.5833333        50   15
  -0.5000000   0.3333333   0.3333333        12    6
   0.5000000  -0.1666667  -0.6666667        53   -2
  -0.7500000  -0.9166667   0.0833333        62   14
  -1.0000000  -0.6666667  -0.1666667        68   18
  -0.2500000   0.5833333   0.5833333        24   -6
  -0.2500000  -0.9166667   0.5833333        66  -23
   0.5000000   0.3333333  -0.6666667        48    4
   0.2500000   0.5833333  -0.9166667        66   -8
   0.0000000   0.8333333   0.8333333        42   -6
   0.0000000  -0.6666667   0.8333333        63   -5
   0.7500000   0.5833333  -0.4166667        47   17
  -0.5000000  -0.1666667   0.3333333        46   23
  -0.7500000   0.0833333   0.0833333        36    6
   0.0000000  -0.6666667  -0.6666667        39    6
   0.7500000   0.5833333   0.0833333        59  -18
  -0.5000000  -0.1666667   0.8333333        67   -4
  -0.7500000   0.0833333   0.5833333        59  -12
   0.2500000  -0.4166667  -0.4166667        15    6
  -0.0000000  -0.1666667  -0.6666667        56  -18
   0.7500000  -0.9166667   0.0833333        62  -13
   0.5000000  -0.6666667  -0.1666667        53   15
   0.5000000  -0.1666667  -0.1666667        21   -6
   0.2500000   0.0833333  -0.4166667        45   14
  -1.0000000  -0.6666667   0.3333333        65  -17
  -0.2500000   0.5833333  -0.9166667        66    5
   0.7500000   0.0833333   0.0833333        36   -7
   0.5000000   0.3333333  -0.1666667        46    8
  -0.7500000  -0.4166667   0.5833333        47   11
   0.0000000   0.8333333  -0.6666667        63  -22
   0.7500000   0.0833333   0.5833333        59    9
   0.5000000   0.3333333   0.3333333        12   -7
   0.2500000   0.5833333   0.0833333        50    3
   1.0000000  -0.1666667   0.8333333        61  -10
  -0.0000000  -0.6666667  -0.1666667        56    9
  -0.2500000  -0.4166667  -0.4166667        15   -7
  -0.5000000  -0.1666667  -0.6666667        53    3
  -0.7500000   0.0833333  -0.9166667        62   -1
   0.2500000  -0.4166667   0.0833333        45   -1
   0.0000000  -0.1666667  -0.1666667        18    6
  -0.2500000   0.0833333  -0.4166667        45  -13
  -0.5000000   0.3333333  -0.6666667        48   -1
   0.5000000  -0.1666667   0.3333333        46  -22
   0.2500000   0.0833333   0.0833333         9   -7
   0.0000000   0.3333333  -0.1666667        44  -10
   0.7500000  -0.4166667   0.5833333        47  -10
   0.6666667  -0.1666667   1.0000000        68    1
  -0.5833333  -0.9166667  -0.2500000        66  -16
   0.1666667   0.3333333   0.5000000        46   18
  -0.0833333   0.5833333   0.2500000        50   12
   0.9166667   0.0833333  -0.7500000        62  -11
   0.6666667   0.3333333   1.0000000        65   -3
   0.4166667   0.5833333   0.7500000        47    7
  -0.8333333  -0.1666667  -0.5000000        67   -9
   0.1666667  -0.6666667   0.5000000        53   22
  -0.0833333  -0.4166667   0.2500000        45  -11
  -0.3333333  -0.1666667   0.0000000        44    7
  -0.5833333   0.0833333  -0.2500000        50   22
  -0.5833333   0.5833333  -0.2500000        24   13
   0.1666667  -0.1666667   0.5000000        21   13
  -0.0833333   0.0833333   0.2500000         9   15
  -0.3333333   0.3333333   0.0000000        27   13
  -0.5833333   0.5833333   0.2500000        24  -15
  -0.8333333   0.8333333   0.0000000        42   13
  -0.0833333   0.0833333   0.7500000        36   15
  -0.3333333   0.3333333   0.5000000        12   15
   0.6666667  -0.1666667  -0.5000000        53   12
  -0.5833333  -0.9166667   0.2500000        66   14
  -0.8333333  -0.6666667   0.0000000        63  -17
  -0.0833333   0.5833333   0.7500000        59   -6
  -0.0833333  -0.9166667   0.7500000        62  -23
   0.6666667   0.3333333  -0.5000000        48  -11
   0.4166667   0.5833333  -0.7500000        47   -8
   0.1666667   0.8333333   1.0000000        61    7
   0.1666667  -0.6666667   1.0000000        68   -5
   0.9166667   0.5833333  -0.2500000        66   17
  -0.3333333  -0.1666667   0.5000000        46  -14
  -0.5833333   0.0833333   0.2500000        50  -21
   0.1666667  -0.6666667  -0.5000000        53  -21
   0.9166667   0.5833333   0.2500000        66  -18
   0.6666667   0.8333333   0.0000000        63  -14
  -0.5833333   0.0833333   0.7500000        59    2
   0.4166667  -0.4166667  -0.2500000        15   15
   0.1666667  -0.1666667  -0.5000000        21  -15
  -0.0833333   0.0833333  -0.7500000        36  -13
   0.6666667  -0.6666667   0.0000000        39  -13
   0.6666667  -0.1666667   0.0000000        56    5
   0.4166667   0.0833333  -0.2500000        45  -23
   0.1666667   0.3333333  -0.5000000        46  -17
  -0.0833333   0.5833333  -0.7500000        59    5
  -0.0833333  -0.9166667  -0.7500000        62   24
  -0.3333333  -0.6666667  -1.0000000        65   -7
  -0.5833333  -0.4166667   0.7500000        47   -4
  -0.8333333  -0.1666667   0.5000000        67   11
   0.9166667   0.0833333   0.7500000        62    9
   0.6666667   0.3333333   0.5000000        48    9
  -0.5833333  -0.4166667  -0.7500000        47    3
  -0.8333333  -0.1666667  -1.0000000        61    3
   0.1666667  -0.6666667   0.0000000        56   -1
  -0.0833333  -0.4166667  -0.2500000        45    9
  -0.3333333  -0.1666667  -0.5000000        46   16
  -0.5833333   0.0833333  -0.7500000        59   -1
   0.4166667  -0.4166667   0.2500000        15  -13
   0.1666667  -0.1666667   0.0000000        18  -13
  -0.0833333   0.0833333  -0.2500000         9  -13
  -0.3333333   0.3333333  -0.5000000        12  -13
   0.6666667  -0.1666667   0.5000000        53  -10
   0.4166667   0.0833333   0.2500000        45   24
   0.1666667   0.3333333   0.0000000        44    3
  -0.0833333   0.5833333  -0.2500000        50  -10
   0.5833333  -0.0833333   0.9166667        69    1
  -0.6666667  -0.8333333  -0.3333333        51  -16
   0.0833333   0.4166667   0.4166667        26    7
  -0.1666667   0.6666667   0.1666667        30   -2
   0.8333333   0.1666667  -0.8333333        37    4
  -0.4166667  -0.5833333  -0.0833333        54  -16
   0.3333333   0.6666667   0.6666667        23    7
  -0.9166667  -0.0833333  -0.5833333        69   -9
   0.0833333  -0.5833333   0.4166667        54   22
  -0.1666667  -0.3333333   0.1666667        10    4
  -0.4166667  -0.0833333  -0.0833333        20    7
   0.3333333  -0.8333333   0.6666667        51   22
  -0.6666667   0.6666667  -0.3333333        23   13
   0.0833333  -0.0833333   0.4166667        20   13
  -0.1666667   0.1666667   0.1666667         3   -2
  -0.4166667   0.4166667  -0.0833333        26   13
  -0.6666667   0.6666667   0.1666667        32  -15
  -0.9166667   0.9166667  -0.0833333        41   13
  -0.1666667   0.1666667   0.6666667        30   15
  -0.4166667   0.4166667   0.4166667         6   -2
   0.5833333  -0.0833333  -0.5833333        33   -2
  -0.6666667  -0.8333333   0.1666667        58   14
  -0.9166667  -0.5833333  -0.0833333        69   18
  -0.1666667   0.6666667   0.6666667        32   -6
  -0.1666667  -0.8333333   0.6666667        58  -23
   0.5833333   0.4166667  -0.5833333        13    4
   0.3333333   0.6666667  -0.8333333        51   -8
   0.0833333   0.9166667   0.9166667        41    7
   0.0833333  -0.5833333   0.9166667        69   -5
   0.8333333   0.6666667  -0.3333333        51   17
  -0.4166667  -0.0833333   0.4166667        26   -4
  -0.6666667   0.1666667   0.1666667        30    6
   0.0833333  -0.5833333  -0.5833333        33    6
   0.8333333   0.6666667   0.1666667        58  -18
   0.5833333   0.9166667  -0.0833333        69  -14
  -0.6666667   0.1666667   0.6666667        32    2
   0.3333333  -0.3333333  -0.3333333         5    2
   0.0833333  -0.0833333  -0.5833333        29  -15
   0.8333333  -0.8333333   0.1666667        37  -13
   0.5833333  -0.5833333  -0.0833333        33   15
   0.5833333  -0.0833333  -0.0833333        29   -6
   0.3333333   0.1666667  -0.3333333        16    4
   0.0833333   0.4166667  -0.5833333        54   -8
  -0.1666667   0.6666667  -0.8333333        58    5
  -0.1666667  -0.8333333  -0.8333333        37   -7
   0.5833333   0.4166667  -0.0833333        54   17
  -0.6666667  -0.3333333   0.6666667        23   -4
   0.0833333   0.9166667  -0.5833333        69   23
   0.8333333   0.1666667   0.6666667        58    9
  -0.4166667  -0.5833333  -0.5833333        13   -7
  -0.6666667  -0.3333333  -0.8333333        51    3
  -0.9166667  -0.0833333   0.9166667        41   -4
   0.0833333  -0.5833333  -0.0833333        29    2
  -0.1666667  -0.3333333  -0.3333333        16   -7
  -0.4166667  -0.0833333  -0.5833333        54    3
  -0.6666667   0.1666667  -0.8333333        58   -1
   0.3333333  -0.3333333   0.1666667        16  -13
   0.0833333  -0.0833333  -0.0833333         2    2
  -0.1666667   0.1666667  -0.3333333        10  -13
   0.5833333  -0.5833333   0.4166667        13  -13
   0.5833333  -0.0833333   0.4166667        54  -10
   0.3333333   0.1666667   0.1666667        10   -7
   0.0833333   0.4166667  -0.0833333        20   -4
   0.8333333  -0.3333333   0.6666667        51  -10
   0.5000000   0.0000000   0.8333333        70    1
   0.2500000   0.2500000   0.5833333        22  -16
   0.0000000   0.5000000   0.3333333        55   21
   0.7500000  -0.2500000  -0.9166667        57   -2
   0.7500000   0.2500000  -0.9166667        57    4
  -0.5000000  -0.5000000  -0.1666667        25  -16
   0.2500000   0.7500000   0.5833333        52  -24
   0.0000000  -1.0000000   0.3333333        71   -9
  -0.0000000  -0.5000000   0.3333333        55   22
  -0.2500000  -0.2500000   0.0833333        17   14
  -0.5000000   0.0000000  -0.1666667        49   22
   0.2500000  -0.7500000   0.5833333        52   22
   0.2500000  -0.2500000   0.5833333        22   13
   0.0000000   0.0000000   0.3333333        19   13
  -0.2500000   0.2500000   0.0833333        17  -15
  -0.5000000   0.5000000  -0.1666667        25   13
  -0.7500000   0.7500000   0.0833333        38  -15
   0.0000000   0.0000000   0.8333333        40   13
  -0.2500000   0.2500000   0.5833333        22   15
  -0.5000000   0.5000000   0.3333333        14  -15
   0.5000000  -0.0000000  -0.6666667        60   -2
  -0.7500000  -0.7500000   0.0833333        38   14
   0.0000000   0.5000000   0.8333333        70   -6
  -0.2500000   0.7500000   0.5833333        52   21
  -0.2500000  -0.7500000   0.5833333        52  -23
  -0.5000000  -0.5000000   0.3333333        14   14
   0.2500000   0.7500000  -0.9166667        57   -8
  -1.0000000   0.0000000  -0.1666667        64   21
   0.0000000  -0.5000000   0.8333333        70   -5
  -0.2500000  -0.2500000   0.5833333        22  -14
  -0.5000000   0.0000000   0.3333333        55   11
   0.2500000  -0.7500000  -0.9166667        57    6
   0.0000000  -0.5000000  -0.6666667        60    6
   0.7500000   0.7500000   0.0833333        38   16
  -0.5000000  -0.0000000   0.8333333        70    2
  -0.7500000   0.2500000   0.5833333        52  -12
   0.2500000  -0.2500000  -0.4166667        11  -15
[...]

     occupation numbers 
     1.0000   1.0000   1.0000   1.0000   0.0000

          k = 0.5000 0.0000 0.8333 (  1153 PWs)   bands (ev):

    -3.5039  -1.7771   1.2566   2.5599   9.8890

     occupation numbers 
     1.0000   1.0000   1.0000   1.0000   0.0000

          k =-0.3333-1.0000 0.0000 (  1154 PWs)   bands (ev):

    -2.6608  -2.6608   1.9165   1.9165   9.2743

     occupation numbers 
     1.0000   1.0000   1.0000   1.0000   0.0000

          k =-0.5000-1.0000 0.0000 (  1144 PWs)   bands (ev):

    -2.6131  -2.6131   1.6746   1.6746  10.8905

     occupation numbers 
     1.0000   1.0000   1.0000   1.0000   0.0000

     highest occupied, lowest unoccupied level (ev):     5.8537    7.0011

!    total energy              =     -15.77067636 Ry
     estimated scf accuracy    <       0.00000007 Ry

     convergence has been achieved in   1 iterations

     Using ACE for calculation of exact exchange
     ACE projected onto     5 (nbndproj) and applied to     5 (nbnd) bands

     total energy              =     -15.77067667 Ry
     Harris-Foulkes estimate   =     -15.77067668 Ry
     est. exchange err (dexx)  =       0.00000031 Ry
     - averaged Fock potential =       1.66713339 Ry
     + Fock energy (ACE)       =      -0.83362652 Ry

     scf convergence threshold =          3.1E-08 Ry

     EXX: now go back to refine exchange calculation

     total cpu time spent up to now is       71.8 secs

     Self-consistent Calculation

     iteration #  1     ecut=    40.00 Ry     beta= 0.70
     Davidson diagonalization with overlap

---- Real-time Memory Report at c_bands before calling an iterative solver
          1090 MiB given to the printing process from OS
             0 MiB allocation reported by mallinfo(arena+hblkhd)
           217 MiB available memory on the node where the printing process lives
------------------
     ethr =  7.70E-10,  avg # of iterations =  2.9

     Threshold (ethr) on eigenvalues was too large:
     Diagonalizing with lowered threshold

     Davidson diagonalization with overlap

---- Real-time Memory Report at c_bands before calling an iterative solver
          1090 MiB given to the printing process from OS
             0 MiB allocation reported by mallinfo(arena+hblkhd)
           218 MiB available memory on the node where the printing process lives
------------------
     ethr =  6.23E-11,  avg # of iterations =  2.0

     total cpu time spent up to now is       73.3 secs

     End of self-consistent calculation

          k = 0.0000 0.0000 0.0000 (  1139 PWs)   bands (ev):

    -7.4087   5.8532   5.8532   5.8532   9.1840

     occupation numbers 
     1.0000   1.0000   1.0000   1.0000   0.0000

          k =-0.0833 0.0833-0.0833 (  1185 PWs)   bands (ev):

    -7.3090   5.0052   5.7138   5.7138   9.2484

     occupation numbers 
     1.0000   1.0000   1.0000   1.0000   0.0000

          k =-0.1667 0.1667-0.1667 (  1167 PWs)   bands (ev):

    -7.0163   3.3804   5.3966   5.3967   8.9785

     occupation numbers 
     1.0000   1.0000   1.0000   1.0000   0.0000

          k =-0.2500 0.2500-0.2500 (  1164 PWs)   bands (ev):

    -6.5194   1.5732   5.0438   5.0438   8.6174

     occupation numbers 
     1.0000   1.0000   1.0000   1.0000   0.0000

          k =-0.3333 0.3333-0.3333 (  1149 PWs)   bands (ev):

    -5.8630  -0.0453   4.7642   4.7642   8.3398

     occupation numbers 
     1.0000   1.0000   1.0000   1.0000   0.0000

          k =-0.4167 0.4167-0.4167 (  1155 PWs)   bands (ev):

    -5.1873  -1.2808   4.6004   4.6004   8.1683

     occupation numbers 
     1.0000   1.0000   1.0000   1.0000   0.0000

          k = 0.5000-0.5000 0.5000 (  1158 PWs)   bands (ev):

    -4.8184  -1.8505   4.5460   4.5460   8.1045

     occupation numbers 
     1.0000   1.0000   1.0000   1.0000   0.0000

          k = 0.0000 0.1667 0.0000 (  1179 PWs)   bands (ev):

    -7.2755   5.1828   5.4260   5.4260   8.8864

     occupation numbers 
     1.0000   1.0000   1.0000   1.0000   0.0000

          k =-0.0833 0.2500-0.0833 (  1164 PWs)   bands (ev):

    -7.0464   3.8656   5.0407   5.2708   8.8843

     occupation numbers 
     1.0000   1.0000   1.0000   1.0000   0.0000

          k =-0.1667 0.3333-0.1667 (  1155 PWs)   bands (ev):

    -6.6158   2.1517   4.6803   4.9335   8.9931

     occupation numbers 
     1.0000   1.0000   1.0000   1.0000   0.0000

          k =-0.2500 0.4167-0.2500 (  1151 PWs)   bands (ev):

    -6.0071   0.4909   4.4358   4.5338   8.8515

     occupation numbers 
     1.0000   1.0000   1.0000   1.0000   0.0000

          k =-0.3333 0.5000-0.3333 (  1153 PWs)   bands (ev):

    -5.3177  -0.8775   4.2002   4.3350   8.6930

     occupation numbers 
     1.0000   1.0000   1.0000   1.0000   0.0000

          k = 0.5833-0.4167 0.5833 (  1160 PWs)   bands (ev):

    -4.7760  -1.7349   3.9747   4.3657   8.6155

     occupation numbers 
     1.0000   1.0000   1.0000   1.0000   0.0000

          k = 0.5000-0.3333 0.5000 (  1156 PWs)   bands (ev):

    -4.9096  -1.5346   3.8699   4.5194   8.6491

     occupation numbers 
     1.0000   1.0000   1.0000   1.0000   0.0000

          k = 0.4167-0.2500 0.4167 (  1147 PWs)   bands (ev):

    -5.5485  -0.4614   3.9017   4.7788   8.7886

     occupation numbers 
     1.0000   1.0000   1.0000   1.0000   0.0000

          k = 0.3333-0.1667 0.3333 (  1151 PWs)   bands (ev):

    -6.2279   1.0237   4.0836   5.1287   9.0281

     occupation numbers 
     1.0000   1.0000   1.0000   1.0000   0.0000

          k = 0.2500-0.0833 0.2500 (  1160 PWs)   bands (ev):

    -6.7825   2.7162   4.4333   5.5006   9.3451

     occupation numbers 
     1.0000   1.0000   1.0000   1.0000   0.0000

          k = 0.1667-0.0000 0.1667 (  1163 PWs)   bands (ev):

    -7.1446   4.2266   4.9945   5.7447   9.5374

     occupation numbers 
     1.0000   1.0000   1.0000   1.0000   0.0000

          k = 0.0000 0.3333 0.0000 (  1162 PWs)   bands (ev):

    -6.8823   3.7583   4.6167   4.6167   8.2522

     occupation numbers 
     1.0000   1.0000   1.0000   1.0000   0.0000

          k =-0.0833 0.4167-0.0833 (  1158 PWs)   bands (ev):

    -6.5127   2.4815   4.2308   4.2784   8.2429

     occupation numbers 
     1.0000   1.0000   1.0000   1.0000   0.0000

          k =-0.1667 0.5000-0.1667 (  1151 PWs)   bands (ev):

    -5.9623   0.9921   3.8028   3.9735   8.4871

     occupation numbers 
     1.0000   1.0000   1.0000   1.0000   0.0000

          k =-0.2500 0.5833-0.2500 (  1152 PWs)   bands (ev):

    -5.2951  -0.3867   3.3085   3.8810   8.5549

     occupation numbers 
     1.0000   1.0000   1.0000   1.0000   0.0000

          k = 0.6667-0.3333 0.6667 (  1153 PWs)   bands (ev):

    -4.6433  -1.4478   2.9185   3.9390   8.6007

     occupation numbers 
     1.0000   1.0000   1.0000   1.0000   0.0000

          k = 0.5833-0.2500 0.5833 (  1157 PWs)   bands (ev):

    -4.5128  -1.6217   2.6806   4.1362   8.7622

     occupation numbers 
     1.0000   1.0000   1.0000   1.0000   0.0000

          k = 0.5000-0.1667 0.5000 (  1156 PWs)   bands (ev):

    -5.0646  -0.7858   2.6186   4.4566   9.0520

     occupation numbers 
     1.0000   1.0000   1.0000   1.0000   0.0000

          k = 0.4167-0.0833 0.4167 (  1156 PWs)   bands (ev):

    -5.7682   0.5257   2.7866   4.8670   9.4254

     occupation numbers 
     1.0000   1.0000   1.0000   1.0000   0.0000

          k = 0.3333 0.0000 0.3333 (  1147 PWs)   bands (ev):

    -6.3594   1.8222   3.3491   5.2734   9.7374

     occupation numbers 
     1.0000   1.0000   1.0000   1.0000   0.0000

          k = 0.0000 0.5000 0.0000 (  1174 PWs)   bands (ev):

    -6.2045   2.0253   3.8138   3.8139   7.6092

     occupation numbers 
     1.0000   1.0000   1.0000   1.0000   0.0000

          k =-0.0833 0.5833-0.0833 (  1154 PWs)   bands (ev):

    -5.7091   0.9826   3.3321   3.5247   7.6751

     occupation numbers 
     1.0000   1.0000   1.0000   1.0000   0.0000

          k =-0.1667 0.6667-0.1667 (  1153 PWs)   bands (ev):

    -5.0831  -0.1381   2.6606   3.4060   7.9167

     occupation numbers 
     1.0000   1.0000   1.0000   1.0000   0.0000

          k = 0.7500-0.2500 0.7500 (  1156 PWs)   bands (ev):

    -4.3854  -1.1926   2.0324   3.4501   8.0255

     occupation numbers 
     1.0000   1.0000   1.0000   1.0000   0.0000

          k = 0.6667-0.1667 0.6667 (  1151 PWs)   bands (ev):

    -4.0209  -1.6574   1.6124   3.6472   8.2226

     occupation numbers 
     1.0000   1.0000   1.0000   1.0000   0.0000

          k = 0.5833-0.0833 0.5833 (  1152 PWs)   bands (ev):

    -4.4313  -1.1164   1.4787   3.9788   8.5733

     occupation numbers 
     1.0000   1.0000   1.0000   1.0000   0.0000

          k = 0.5000 0.0000 0.5000 (  1159 PWs)   bands (ev):

    -5.1361  -0.1807   1.7921   4.4193   9.0460

     occupation numbers 
     1.0000   1.0000   1.0000   1.0000   0.0000

          k = 0.0000 0.6667 0.0000 (  1150 PWs)   bands (ev):

    -5.2693   0.3169   3.2011   3.2011   7.1610

     occupation numbers 
     1.0000   1.0000   1.0000   1.0000   0.0000

          k =-0.0833 0.7500-0.0833 (  1152 PWs)   bands (ev):

    -4.6865  -0.5384   2.7036   3.0431   7.3268

     occupation numbers 
     1.0000   1.0000   1.0000   1.0000   0.0000

          k = 0.8333-0.1667 0.8333 (  1149 PWs)   bands (ev):

    -3.9855  -1.4023   1.9280   3.0496   7.5241

     occupation numbers 
     1.0000   1.0000   1.0000   1.0000   0.0000

          k = 0.7500-0.0833 0.7500 (  1149 PWs)   bands (ev):

    -3.4580  -1.9508   1.2511   3.2208   7.7179

     occupation numbers 
     1.0000   1.0000   1.0000   1.0000   0.0000

          k = 0.6667-0.0000 0.6667 (  1141 PWs)   bands (ev):

    -3.7649  -1.6262   0.9978   3.5382   8.0700

     occupation numbers 
     1.0000   1.0000   1.0000   1.0000   0.0000

          k = 0.0000 0.8333 0.0000 (  1162 PWs)   bands (ev):

    -4.1468  -1.2670   2.8430   2.8430   7.0014

     occupation numbers 
     1.0000   1.0000   1.0000   1.0000   0.0000

          k = 0.9167-0.0833 0.9167 (  1150 PWs)   bands (ev):

    -3.4625  -2.0435   2.4086   2.8057   7.2159

     occupation numbers 
     1.0000   1.0000   1.0000   1.0000   0.0000

          k = 0.8333 0.0000 0.8333 (  1152 PWs)   bands (ev):

    -2.9450  -2.5004   1.6969   2.9347   7.3881

     occupation numbers 
     1.0000   1.0000   1.0000   1.0000   0.0000

          k = 0.0000-1.0000 0.0000 (  1162 PWs)   bands (ev):

    -2.7954  -2.7954   2.7230   2.7230   7.1533

     occupation numbers 
     1.0000   1.0000   1.0000   1.0000   0.0000

          k =-0.1667 0.3333 0.0000 (  1157 PWs)   bands (ev):

    -6.7474   2.9414   4.1748   5.1520   8.8943

     occupation numbers 
     1.0000   1.0000   1.0000   1.0000   0.0000

          k =-0.2500 0.4167-0.0833 (  1148 PWs)   bands (ev):

    -6.2564   1.5266   3.5869   4.8483   9.1742

     occupation numbers 
     1.0000   1.0000   1.0000   1.0000   0.0000

          k =-0.3333 0.5000-0.1667 (  1151 PWs)   bands (ev):

    -5.6151   0.0507   3.2821   4.4777   9.2293

     occupation numbers 
     1.0000   1.0000   1.0000   1.0000   0.0000

          k = 0.5833-0.4167 0.7500 (  1151 PWs)   bands (ev):

    -4.9246  -1.1736   3.1397   4.2012   9.1863

     occupation numbers 
     1.0000   1.0000   1.0000   1.0000   0.0000

          k = 0.5000-0.3333 0.6667 (  1152 PWs)   bands (ev):

    -4.5486  -1.7269   3.1010   4.0987   9.1694

     occupation numbers 
     1.0000   1.0000   1.0000   1.0000   0.0000

          k =-0.1667 0.5000 0.0000 (  1156 PWs)   bands (ev):

    -6.0810   1.5656   3.3684   4.1575   8.2872

     occupation numbers 
     1.0000   1.0000   1.0000   1.0000   0.0000

          k =-0.2500 0.5833-0.0833 (  1152 PWs)   bands (ev):

    -5.4920   0.4016   2.7818   3.8403   8.6354

     occupation numbers 
     1.0000   1.0000   1.0000   1.0000   0.0000

          k = 0.6667-0.3333 0.8333 (  1153 PWs)   bands (ev):

    -4.7987  -0.7865   2.3834   3.5991   8.7797

     occupation numbers 
     1.0000   1.0000   1.0000   1.0000   0.0000

          k = 0.5833-0.2500 0.7500 (  1152 PWs)   bands (ev):

    -4.2412  -1.5868   2.1054   3.5716   8.9216

     occupation numbers 
     1.0000   1.0000   1.0000   1.0000   0.0000

          k = 0.5000-0.1667 0.6667 (  1152 PWs)   bands (ev):

    -4.3890  -1.3785   1.9783   3.7556   9.1902

     occupation numbers 
     1.0000   1.0000   1.0000   1.0000   0.0000

          k = 0.4167-0.0833 0.5833 (  1154 PWs)   bands (ev):

    -5.0481  -0.3948   2.0683   4.1055   9.5867

     occupation numbers 
     1.0000   1.0000   1.0000   1.0000   0.0000

          k = 0.3333 0.0000 0.5000 (  1157 PWs)   bands (ev):

    -5.7266   0.7283   2.5500   4.5315   9.8090

     occupation numbers 
     1.0000   1.0000   1.0000   1.0000   0.0000

          k =-0.1667 0.6667-0.0000 (  1154 PWs)   bands (ev):

    -5.1720   0.1417   2.7764   3.2590   7.8454

     occupation numbers 
     1.0000   1.0000   1.0000   1.0000   0.0000

          k = 0.7500-0.2500 0.9167 (  1156 PWs)   bands (ev):

    -4.5044  -0.7836   2.1556   3.0198   8.2073

     occupation numbers 
     1.0000   1.0000   1.0000   1.0000   0.0000

          k = 0.6667-0.1667 0.8333 (  1154 PWs)   bands (ev):

    -3.8423  -1.5914   1.5513   3.0281   8.3785

     occupation numbers 
     1.0000   1.0000   1.0000   1.0000   0.0000

          k = 0.5833-0.0833 0.7500 (  1157 PWs)   bands (ev):

    -3.7669  -1.6636   1.2081   3.2463   8.6535

     occupation numbers 
     1.0000   1.0000   1.0000   1.0000   0.0000

          k = 0.5000 0.0000 0.6667 (  1161 PWs)   bands (ev):

    -4.3578  -1.0149   1.3189   3.6292   9.0808

     occupation numbers 
     1.0000   1.0000   1.0000   1.0000   0.0000

          k = 0.8333-0.1667 1.0000 (  1159 PWs)   bands (ev):

    -4.0550  -1.3189   2.4732   2.6683   7.6651

     occupation numbers 
     1.0000   1.0000   1.0000   1.0000   0.0000

          k = 0.7500-0.0833 0.9167 (  1153 PWs)   bands (ev):

    -3.3501  -2.0427   1.7992   2.6298   7.9788

     occupation numbers 
     1.0000   1.0000   1.0000   1.0000   0.0000

          k = 0.6667 0.0000 0.8333 (  1151 PWs)   bands (ev):

    -3.1818  -2.1615   1.2083   2.8506   8.2330

     occupation numbers 
     1.0000   1.0000   1.0000   1.0000   0.0000

          k =-0.1667-1.0000-0.0000 (  1148 PWs)   bands (ev):

    -2.7503  -2.7503   2.4253   2.4253   7.7778

     occupation numbers 
     1.0000   1.0000   1.0000   1.0000   0.0000

          k = 0.6667-0.3333 1.0000 (  1151 PWs)   bands (ev):

    -4.8605  -0.3599   1.9985   3.4378   9.4004

     occupation numbers 
     1.0000   1.0000   1.0000   1.0000   0.0000

          k = 0.5833-0.2500 0.9167 (  1152 PWs)   bands (ev):

    -4.1646  -1.2231   1.5972   3.0628   9.7989

     occupation numbers 
     1.0000   1.0000   1.0000   1.0000   0.0000

          k = 0.5000-0.1667 0.8333 (  1152 PWs)   bands (ev):

    -3.7681  -1.7014   1.4741   2.9219   9.9058

     occupation numbers 
     1.0000   1.0000   1.0000   1.0000   0.0000

          k = 0.6667-0.1667 1.0000 (  1155 PWs)   bands (ev):

    -3.8206  -1.4755   1.7913   2.4682   9.2120

     occupation numbers 
     1.0000   1.0000   1.0000   1.0000   0.0000

          k = 0.5833-0.0833 0.9167 (  1158 PWs)   bands (ev):

    -3.2438  -2.0387   1.4046   2.3049   9.5702

     occupation numbers 
     1.0000   1.0000   1.0000   1.0000   0.0000

          k = 0.5000 0.0000 0.8333 (  1153 PWs)   bands (ev):

    -3.5035  -1.7768   1.2568   2.5599   9.8894

     occupation numbers 
     1.0000   1.0000   1.0000   1.0000   0.0000

          k =-0.3333-1.0000 0.0000 (  1154 PWs)   bands (ev):

    -2.6604  -2.6604   1.9166   1.9166   9.2747

     occupation numbers 
     1.0000   1.0000   1.0000   1.0000   0.0000

          k =-0.5000-1.0000 0.0000 (  1144 PWs)   bands (ev):

    -2.6127  -2.6127   1.6747   1.6747  10.8907

     occupation numbers 
     1.0000   1.0000   1.0000   1.0000   0.0000

     highest occupied, lowest unoccupied level (ev):     5.8532    7.0014

!    total energy              =     -15.77067675 Ry
     estimated scf accuracy    <          5.4E-09 Ry

     convergence has been achieved in   1 iterations

     Using ACE for calculation of exact exchange
     ACE projected onto     5 (nbndproj) and applied to     5 (nbnd) bands

!!   total energy              =     -15.77067675 Ry
     Harris-Foulkes estimate   =     -15.77067675 Ry
     est. exchange err (dexx)  =          2.5E-09 Ry
     - averaged Fock potential =       1.66728420 Ry
     + Fock energy (ACE)       =      -0.83365768 Ry

     EXX self-consistency reached

     Writing all to output data dir ./out/si.save/
 
     init_run     :      0.24s CPU      0.26s WALL (       1 calls)
     electrons    :      9.18s CPU      9.31s WALL (       5 calls)

     Called by init_run:
     aceinit0     :      0.00s CPU      0.00s WALL (       1 calls)
     wfcinit      :      0.21s CPU      0.21s WALL (       1 calls)
     wfcinit:wfcr :      0.18s CPU      0.19s WALL (      72 calls)
     potinit      :      0.01s CPU      0.01s WALL (       1 calls)
     hinit0       :      0.01s CPU      0.01s WALL (       1 calls)

     Called by electrons:
     c_bands      :      7.82s CPU      7.93s WALL (      12 calls)
     sum_band     :      1.20s CPU      1.21s WALL (      12 calls)
     v_of_rho     :      0.19s CPU      0.19s WALL (       9 calls)
     v_h          :      0.00s CPU      0.00s WALL (       9 calls)
     v_xc         :      0.18s CPU      0.19s WALL (       9 calls)
     mix_rho      :      0.00s CPU      0.00s WALL (      12 calls)

     Called by c_bands:
     init_us_2    :      0.23s CPU      0.23s WALL (    1800 calls)
     init_us_2:cp :      0.22s CPU      0.23s WALL (    1800 calls)
     cegterg      :      7.31s CPU      7.42s WALL (     864 calls)

     Called by sum_band:
     sum_band:wei :      0.00s CPU      0.00s WALL (      12 calls)
     sum_band:loo :      1.18s CPU      1.19s WALL (      12 calls)
     sum_band:buf :      0.01s CPU      0.01s WALL (     864 calls)
     sum_band:ini :      0.11s CPU      0.11s WALL (     864 calls)

     Called by *egterg:
     cdiaghg      :      0.15s CPU      0.15s WALL (    2991 calls)
     cegterg:over :      0.12s CPU      0.12s WALL (    2775 calls)
     cegterg:upda :      0.10s CPU      0.10s WALL (    2775 calls)
     cegterg:last :      0.12s CPU      0.12s WALL (    2256 calls)
     h_psi        :      6.89s CPU      6.98s WALL (    3711 calls)
     g_psi        :      0.03s CPU      0.03s WALL (    2775 calls)

     Called by h_psi:
     h_psi:calbec :      0.15s CPU      0.15s WALL (    3711 calls)
     vloc_psi     :      6.48s CPU      6.57s WALL (    3711 calls)
     add_vuspsi   :      0.12s CPU      0.12s WALL (    3711 calls)

     General routines
     calbec       :      0.20s CPU      0.21s WALL (    7486 calls)
     fft          :      0.02s CPU      0.02s WALL (      88 calls)
     ffts         :      0.00s CPU      0.00s WALL (      12 calls)
     fftw         :      6.68s CPU      6.76s WALL (   32688 calls)
     fftc         :     50.82s CPU     51.65s WALL ( 1152000 calls)
     fftcw        :      0.24s CPU      0.25s WALL (    5400 calls)
 
     Parallel routines

     EXX routines
     exx_grid     :      0.09s CPU      0.09s WALL (       1 calls)
     exxinit      :      2.59s CPU      3.00s WALL (       5 calls)
     vexx         :     75.81s CPU     76.96s WALL (     360 calls)
     matcalc      :      0.07s CPU      0.08s WALL (    3775 calls)
     aceupdate    :      0.01s CPU      0.01s WALL (     360 calls)
     vexxace      :      0.13s CPU      0.14s WALL (    2767 calls)
     aceinit      :     75.84s CPU     76.99s WALL (     360 calls)
 
     PWSCF        :   1m28.04s CPU   1m29.93s WALL

 
   This run was terminated on:  15:29:19  31Oct2022            

=------------------------------------------------------------------------------=
   JOB DONE.
=------------------------------------------------------------------------------=
