
     Program PWSCF v.6.7MaX starts on  7Jun2021 at 14:45: 8 

     This program is part of the open-source Quantum ESPRESSO suite
     for quantum simulation of materials; please cite
         "P. Giannozzi et al., J. Phys.:Condens. Matter 21 395502 (2009);
         "P. Giannozzi et al., J. Phys.:Condens. Matter 29 465901 (2017);
          URL http://www.quantum-espresso.org", 
     in publications or presentations arising from this work. More details at
     http://www.quantum-espresso.org/quote

     Parallel version (MPI), running on     1 processors

     MPI processes distributed on     1 nodes
     Waiting for input...
     Reading input from standard input

     Current dimensions of program PWSCF are:
     Max number of different atomic species (ntypx) = 10
     Max number of k-points (npk) =  40000
     Max angular momentum in pseudopotentials (lmaxx) =  3

     Reading Hubbard V parameters from the file parameters.in...

     Message from routine volume:
     axis vectors are left-handed
     file O.pbesol-n-kjpaw_psl.0.1.UPF: wavefunction(s)  2P renormalized

     Subspace diagonalization in iterative solution of the eigenvalue problem:
     a serial algorithm will be used

     Message from routine setup:
     using ibrav=0 with symmetry is DISCOURAGED, use correct ibrav instead
     First shells distances (in Bohr):
     shell:   1    0.000000
     shell:   2    4.027403
     shell:   3    5.684134
     shell:   4    5.707060
     shell:   5    6.947532
     shell:   6    6.985020
     shell:   7    8.054807

     i    j  dist (Bohr)       stan-stan stan-bac bac-bac bac-stan
     1    1   0.00000000  V =    6.6421   0.0000   0.0000   0.0000
     1   12   4.02740329  V =    0.4917   0.0000   0.0000   0.0000
     1   20   4.02740329  V =    0.4917   0.0000   0.0000   0.0000
     1   23   4.02740329  V =    0.4917   0.0000   0.0000   0.0000
     1   44   4.02740329  V =    0.4917   0.0000   0.0000   0.0000
     1   47   4.02740329  V =    0.4917   0.0000   0.0000   0.0000
     1   55   4.02740329  V =    0.4917   0.0000   0.0000   0.0000
     2    2   0.00000000  V =    6.6421   0.0000   0.0000   0.0000
     2   24   4.02740329  V =    0.4917   0.0000   0.0000   0.0000
     2   48   4.02740329  V =    0.4917   0.0000   0.0000   0.0000
     2   56   4.02740329  V =    0.4917   0.0000   0.0000   0.0000
     2   59   4.02740329  V =    0.4917   0.0000   0.0000   0.0000
     2   67   4.02740329  V =    0.4917   0.0000   0.0000   0.0000
     2   91   4.02740329  V =    0.4917   0.0000   0.0000   0.0000
     3    3   0.00000000  V =    0.0000   0.0000   0.0000   0.0000
     3   22   4.02740329  V =    0.4917   0.0000   0.0000   0.0000
     3   46   4.02740329  V =    0.4917   0.0000   0.0000   0.0000
     3   54   4.02740329  V =    0.4917   0.0000   0.0000   0.0000
     3   57   4.02740329  V =    0.4917   0.0000   0.0000   0.0000
     3   65   4.02740329  V =    0.4917   0.0000   0.0000   0.0000
     3   89   4.02740329  V =    0.4917   0.0000   0.0000   0.0000
     4    4   0.00000000  V =    0.0000   0.0000   0.0000   0.0000
     4   58   4.02740329  V =    0.4917   0.0000   0.0000   0.0000
     4   66   4.02740329  V =    0.4917   0.0000   0.0000   0.0000
     4   69   4.02740329  V =    0.4917   0.0000   0.0000   0.0000
     4   90   4.02740329  V =    0.4917   0.0000   0.0000   0.0000
     4   93   4.02740329  V =    0.4917   0.0000   0.0000   0.0000
     4  101   4.02740329  V =    0.4917   0.0000   0.0000   0.0000
 
     G-vector sticks info
     --------------------
     sticks:   dense  smooth     PW     G-vecs:    dense   smooth      PW
     Sum        1201     597    199                20701     7367    1387
 


     bravais-lattice index     =            0
     lattice parameter (alat)  =       8.0000  a.u.
     unit-cell volume          =     261.2912 (a.u.)^3
     number of atoms/cell      =            4
     number of atomic types    =            3
     number of electrons       =        46.00
     number of Kohn-Sham states=           28
     kinetic-energy cutoff     =      35.0000  Ry
     charge density cutoff     =     280.0000  Ry
     scf convergence threshold =      1.0E-10
     mixing beta               =       0.7000
     number of iterations used =            8  plain     mixing
     Exchange-correlation= SLA  PW   PSX  PSC
                           (   1   4  10   8   0   0   0)

     celldm(1)=   8.000000  celldm(2)=   0.000000  celldm(3)=   0.000000
     celldm(4)=   0.000000  celldm(5)=   0.000000  celldm(6)=   0.000000

     crystal axes: (cart. coord. in units of alat)
               a(1) = (   0.500381   0.500381   1.004818 )  
               a(2) = (   0.500381   1.004818   0.500381 )  
               a(3) = (   1.004818   0.500381   0.500381 )  

     reciprocal axes: (cart. coord. in units 2 pi/alat)
               b(1) = ( -0.494599 -0.494599  1.487807 )  
               b(2) = ( -0.494599  1.487807 -0.494599 )  
               b(3) = (  1.487807 -0.494599 -0.494599 )  


     PseudoPot. # 1 for Co read from file:
     ../files/pseudo/co_pbesol_v1.2.uspp.F.UPF
     MD5 check sum: 3b4cd4e7cc7df4da9fdede0fd33e2193
     Pseudo is Ultrasoft + core correction, Zval = 17.0
     Generated by new atomic code, or converted to UPF format
     Using radial grid of  863 points,  6 beta functions with: 
                l(1) =   0
                l(2) =   0
                l(3) =   1
                l(4) =   1
                l(5) =   2
                l(6) =   2
     Q(r) pseudized with  8 coefficients,  rinner =    1.200   1.200   1.200
                                                       1.200   1.200

     PseudoPot. # 2 for Co read from file:
     ../files/pseudo/co_pbesol_v1.2.uspp.F.UPF
     MD5 check sum: 3b4cd4e7cc7df4da9fdede0fd33e2193
     Pseudo is Ultrasoft + core correction, Zval = 17.0
     Generated by new atomic code, or converted to UPF format
     Using radial grid of  863 points,  6 beta functions with: 
                l(1) =   0
                l(2) =   0
                l(3) =   1
                l(4) =   1
                l(5) =   2
                l(6) =   2
     Q(r) pseudized with  8 coefficients,  rinner =    1.200   1.200   1.200
                                                       1.200   1.200

     PseudoPot. # 3 for O  read from file:
     ../files/pseudo/O.pbesol-n-kjpaw_psl.0.1.UPF
     MD5 check sum: 126339daddaa87477ab44acfa0b5aa00
     Pseudo is Projector augmented-wave + core cor, Zval =  6.0
     Generated using "atomic" code by A. Dal Corso  v.6.0 svn rev. 13079
     Shape of augmentation charge: BESSEL
     Using radial grid of 1095 points,  4 beta functions with: 
                l(1) =   0
                l(2) =   0
                l(3) =   1
                l(4) =   1
     Q(r) pseudized with 0 coefficients 


     atomic species   valence    mass     pseudopotential
        Co1           17.00    58.93319     Co( 1.00)
        Co2           17.00    58.93319     Co( 1.00)
        O              6.00    15.99900     O ( 1.00)

     Starting magnetic structure 
     atomic species   magnetization
        Co1          0.500
        Co2         -0.500
        O            0.000



     12 Sym. Ops., with inversion, found


                                    s                        frac. trans.

      isym =  1     identity                                     

 cryst.   s( 1) = (     1          0          0      )
                  (     0          1          0      )
                  (     0          0          1      )

 cart.    s( 1) = (  1.0000000 -0.0000000 -0.0000000 )
                  ( -0.0000000  1.0000000 -0.0000000 )
                  ( -0.0000000 -0.0000000  1.0000000 )


      isym =  2     180 deg rotation - cart. axis [1,-1,0]       

 cryst.   s( 2) = (    -1          0          0      )
                  (     0          0         -1      )
                  (     0         -1          0      )

 cart.    s( 2) = (  0.0000000 -1.0000000  0.0000000 )
                  ( -1.0000000  0.0000000  0.0000000 )
                  (  0.0000000  0.0000000 -1.0000000 )


      isym =  3     180 deg rotation - cart. axis [-1,0,1]       

 cryst.   s( 3) = (     0          0         -1      )
                  (     0         -1          0      )
                  (    -1          0          0      )

 cart.    s( 3) = (  0.0000000  0.0000000 -1.0000000 )
                  (  0.0000000 -1.0000000  0.0000000 )
                  ( -1.0000000  0.0000000  0.0000000 )


      isym =  4     180 deg rotation - cart. axis [0,1,-1]       

 cryst.   s( 4) = (     0         -1          0      )
                  (    -1          0          0      )
                  (     0          0         -1      )

 cart.    s( 4) = ( -1.0000000  0.0000000  0.0000000 )
                  (  0.0000000  0.0000000 -1.0000000 )
                  (  0.0000000 -1.0000000  0.0000000 )


      isym =  5     120 deg rotation - cart. axis [-1,-1,-1]     

 cryst.   s( 5) = (     0          1          0      )
                  (     0          0          1      )
                  (     1          0          0      )

 cart.    s( 5) = ( -0.0000000  1.0000000 -0.0000000 )
                  ( -0.0000000 -0.0000000  1.0000000 )
                  (  1.0000000 -0.0000000 -0.0000000 )


      isym =  6     120 deg rotation - cart. axis [1,1,1]        

 cryst.   s( 6) = (     0          0          1      )
                  (     1          0          0      )
                  (     0          1          0      )

 cart.    s( 6) = ( -0.0000000 -0.0000000  1.0000000 )
                  (  1.0000000 -0.0000000 -0.0000000 )
                  ( -0.0000000  1.0000000 -0.0000000 )


      isym =  7     inversion                                    

 cryst.   s( 7) = (    -1          0          0      )
                  (     0         -1          0      )
                  (     0          0         -1      )

 cart.    s( 7) = ( -1.0000000  0.0000000  0.0000000 )
                  (  0.0000000 -1.0000000  0.0000000 )
                  (  0.0000000  0.0000000 -1.0000000 )


      isym =  8     inv. 180 deg rotation - cart. axis [1,-1,0]  

 cryst.   s( 8) = (     1          0          0      )
                  (     0          0          1      )
                  (     0          1          0      )

 cart.    s( 8) = ( -0.0000000  1.0000000 -0.0000000 )
                  (  1.0000000 -0.0000000 -0.0000000 )
                  ( -0.0000000 -0.0000000  1.0000000 )


      isym =  9     inv. 180 deg rotation - cart. axis [-1,0,1]  

 cryst.   s( 9) = (     0          0          1      )
                  (     0          1          0      )
                  (     1          0          0      )

 cart.    s( 9) = ( -0.0000000 -0.0000000  1.0000000 )
                  ( -0.0000000  1.0000000 -0.0000000 )
                  (  1.0000000 -0.0000000 -0.0000000 )


      isym = 10     inv. 180 deg rotation - cart. axis [0,1,-1]  

 cryst.   s(10) = (     0          1          0      )
                  (     1          0          0      )
                  (     0          0          1      )

 cart.    s(10) = (  1.0000000 -0.0000000 -0.0000000 )
                  ( -0.0000000 -0.0000000  1.0000000 )
                  ( -0.0000000  1.0000000 -0.0000000 )


      isym = 11     inv. 120 deg rotation - cart. axis [-1,-1,-1]

 cryst.   s(11) = (     0         -1          0      )
                  (     0          0         -1      )
                  (    -1          0          0      )

 cart.    s(11) = (  0.0000000 -1.0000000  0.0000000 )
                  (  0.0000000  0.0000000 -1.0000000 )
                  ( -1.0000000  0.0000000  0.0000000 )


      isym = 12     inv. 120 deg rotation - cart. axis [1,1,1]   

 cryst.   s(12) = (     0          0         -1      )
                  (    -1          0          0      )
                  (     0         -1          0      )

 cart.    s(12) = (  0.0000000  0.0000000 -1.0000000 )
                  ( -1.0000000  0.0000000  0.0000000 )
                  (  0.0000000 -1.0000000  0.0000000 )


   Cartesian axes

     site n.     atom                  positions (alat units)
         1           Co1 tau(   1) = (   0.0000000   0.0000000   0.0000000  )
         2           Co2 tau(   2) = (   1.0027898   1.0027898   1.0027898  )
         3           O   tau(   3) = (   0.5013949   0.5013949   0.5013949  )
         4           O   tau(   4) = (   1.5041847   1.5041847   1.5041847  )

   Crystallographic axes

     site n.     atom                  positions (cryst. coord.)
         1           Co1 tau(   1) = (  0.0000000  0.0000000  0.0000000  )
         2           Co2 tau(   2) = (  0.5000000  0.5000000  0.5000000  )
         3           O   tau(   3) = (  0.2500000  0.2500000  0.2500000  )
         4           O   tau(   4) = (  0.7500000  0.7500000  0.7500000  )

     number of k points=     6  Marzari-Vanderbilt smearing, width (Ry)=  0.0200
                       cart. coord. in units 2pi/alat
        k(    1) = (   0.0000000   0.0000000   0.0000000), wk =   0.0370370
        k(    2) = (   0.4959356  -0.1648663  -0.1648663), wk =   0.2222222
        k(    3) = (   0.3310693   0.3310693  -0.3297326), wk =   0.2222222
        k(    4) = (  -0.6608019   0.6608019   0.0000000), wk =   0.2222222
        k(    5) = (   0.1662030   0.1662030   0.1662030), wk =   0.0740741
        k(    6) = (  -0.8256682   0.4959356   0.4959356), wk =   0.2222222

                       cryst. coord.
        k(    1) = (   0.0000000   0.0000000   0.0000000), wk =   0.0370370
        k(    2) = (  -0.0000000  -0.0000000   0.3333333), wk =   0.2222222
        k(    3) = (  -0.0000000   0.3333333   0.3333333), wk =   0.2222222
        k(    4) = (   0.0000000   0.3333333  -0.3333333), wk =   0.2222222
        k(    5) = (   0.3333333   0.3333333   0.3333333), wk =   0.0740741
        k(    6) = (   0.3333333   0.3333333  -0.3333333), wk =   0.2222222

     Dense  grid:    20701 G-vectors     FFT dimensions: (  54,  54,  54)

     Smooth grid:     7367 G-vectors     FFT dimensions: (  40,  40,  40)

     Dynamical RAM for                 wfc:       0.39 MB

     Dynamical RAM for     wfc (w. buffer):       5.08 MB

     Dynamical RAM for             U proj.:       0.22 MB

     Dynamical RAM for  U proj. (w. buff.):       2.90 MB

     Dynamical RAM for           str. fact:       0.95 MB

     Dynamical RAM for           local pot:       0.00 MB

     Dynamical RAM for          nlocal pot:       0.73 MB

     Dynamical RAM for                qrad:       4.03 MB

     Dynamical RAM for          rho,v,vnew:       9.10 MB

     Dynamical RAM for               rhoin:       3.03 MB

     Dynamical RAM for            rho*nmix:      10.11 MB

     Dynamical RAM for           G-vectors:       1.24 MB

     Dynamical RAM for          h,s,v(r/c):       0.14 MB

     Dynamical RAM for          <psi|beta>:       0.02 MB

     Dynamical RAM for                 psi:       0.78 MB

     Dynamical RAM for                hpsi:       0.78 MB

     Dynamical RAM for                spsi:       0.78 MB

     Dynamical RAM for      wfcinit/wfcrot:       0.98 MB

     Dynamical RAM for           addusdens:      59.70 MB

     Estimated static dynamical RAM per process >      45.64 MB

     Estimated max dynamical RAM per process >     105.34 MB

     Check: negative core charge=   -0.000039
     Generating pointlists ...
     new r_m :   0.2077 (alat units)  1.6613 (a.u.) for type    1
     new r_m :   0.2077 (alat units)  1.6613 (a.u.) for type    2
     new r_m :   0.2077 (alat units)  1.6613 (a.u.) for type    3

     Initial potential from superposition of free atoms

     starting charge   43.99998, renormalised to   46.00000
 --- in v_hubbard_extended ---
Hubbard energy    0.5858
 -----------------------------
     Number of +U iterations with fixed ns =  0
     Starting occupations:
 --- enter write_nsg ---
 Atom:    1   Spin:  1
    eigenvalues and eigenvectors of the occupation matrix:
  1.000
  1.000  0.000  0.000  0.000  0.000
  1.000
  0.000  1.000  0.000  0.000  0.000
  1.000
  0.000  0.000  1.000  0.000  0.000
  1.000
  0.000  0.000  0.000  1.000  0.000
  1.000
  0.000  0.000  0.000  0.000  1.000
    occupation matrix before diagonalization:
  1.000  0.000  0.000  0.000  0.000
  0.000  1.000  0.000  0.000  0.000
  0.000  0.000  1.000  0.000  0.000
  0.000  0.000  0.000  1.000  0.000
  0.000  0.000  0.000  0.000  1.000
 Atom:    2   Spin:  1
    eigenvalues and eigenvectors of the occupation matrix:
  0.400
  1.000  0.000  0.000  0.000  0.000
  0.400
  0.000  1.000  0.000  0.000  0.000
  0.400
  0.000  0.000  1.000  0.000  0.000
  0.400
  0.000  0.000  0.000  1.000  0.000
  0.400
  0.000  0.000  0.000  0.000  1.000
    occupation matrix before diagonalization:
  0.400  0.000  0.000  0.000  0.000
  0.000  0.400  0.000  0.000  0.000
  0.000  0.000  0.400  0.000  0.000
  0.000  0.000  0.000  0.400  0.000
  0.000  0.000  0.000  0.000  0.400
 Atom:    3   Spin:  1
    eigenvalues and eigenvectors of the occupation matrix:
  0.667
  1.000  0.000  0.000
  0.667
  0.000  1.000  0.000
  0.667
  0.000  0.000  1.000
    occupation matrix before diagonalization:
  0.667  0.000  0.000
  0.000  0.667  0.000
  0.000  0.000  0.667
 Atom:    4   Spin:  1
    eigenvalues and eigenvectors of the occupation matrix:
  0.667
  1.000  0.000  0.000
  0.667
  0.000  1.000  0.000
  0.667
  0.000  0.000  1.000
    occupation matrix before diagonalization:
  0.667  0.000  0.000
  0.000  0.667  0.000
  0.000  0.000  0.667
 Atom:    1   Spin:  2
    eigenvalues and eigenvectors of the occupation matrix:
  0.400
  1.000  0.000  0.000  0.000  0.000
  0.400
  0.000  1.000  0.000  0.000  0.000
  0.400
  0.000  0.000  1.000  0.000  0.000
  0.400
  0.000  0.000  0.000  1.000  0.000
  0.400
  0.000  0.000  0.000  0.000  1.000
    occupation matrix before diagonalization:
  0.400  0.000  0.000  0.000  0.000
  0.000  0.400  0.000  0.000  0.000
  0.000  0.000  0.400  0.000  0.000
  0.000  0.000  0.000  0.400  0.000
  0.000  0.000  0.000  0.000  0.400
 Atom:    2   Spin:  2
    eigenvalues and eigenvectors of the occupation matrix:
  1.000
  1.000  0.000  0.000  0.000  0.000
  1.000
  0.000  1.000  0.000  0.000  0.000
  1.000
  0.000  0.000  1.000  0.000  0.000
  1.000
  0.000  0.000  0.000  1.000  0.000
  1.000
  0.000  0.000  0.000  0.000  1.000
    occupation matrix before diagonalization:
  1.000  0.000  0.000  0.000  0.000
  0.000  1.000  0.000  0.000  0.000
  0.000  0.000  1.000  0.000  0.000
  0.000  0.000  0.000  1.000  0.000
  0.000  0.000  0.000  0.000  1.000
 Atom:    3   Spin:  2
    eigenvalues and eigenvectors of the occupation matrix:
  0.667
  1.000  0.000  0.000
  0.667
  0.000  1.000  0.000
  0.667
  0.000  0.000  1.000
    occupation matrix before diagonalization:
  0.667  0.000  0.000
  0.000  0.667  0.000
  0.000  0.000  0.667
 Atom:    4   Spin:  2
    eigenvalues and eigenvectors of the occupation matrix:
  0.667
  1.000  0.000  0.000
  0.667
  0.000  1.000  0.000
  0.667
  0.000  0.000  1.000
    occupation matrix before diagonalization:
  0.667  0.000  0.000
  0.000  0.667  0.000
  0.000  0.000  0.667
atom    1   Tr[ns(na)]=   7.0000000
atom    1   Mag[ns(na)]=   3.0000000
atom    2   Tr[ns(na)]=   7.0000000
atom    2   Mag[ns(na)]=  -3.0000000
atom    3   Tr[ns(na)]=   4.0000000
atom    3   Mag[ns(na)]=   0.0000000
atom    4   Tr[ns(na)]=   4.0000000
atom    4   Mag[ns(na)]=   0.0000000
 --- exit write_nsg ---
 Atomic wfc used for LDA+U Projector are orthogonalized
     Starting wfcs are   34 randomized atomic wfcs
     Checking if some PAW data can be deallocated... 

     total cpu time spent up to now is        1.7 secs

     Self-consistent Calculation

     iteration #  1     ecut=    35.00 Ry     beta= 0.70
     Davidson diagonalization with overlap
     ethr =  1.00E-02,  avg # of iterations =  2.8
 --- enter write_nsg ---
 Atom:    1   Spin:  1
    eigenvalues and eigenvectors of the occupation matrix:
  0.958
  0.021  0.285 -0.805 -0.025 -0.520
  0.958
 -0.025  0.765 -0.136 -0.021  0.629
  0.962
 -0.000 -0.577 -0.577  0.000  0.577
  0.987
 -0.920 -0.003 -0.022  0.392 -0.025
  0.987
 -0.392 -0.027  0.016 -0.920 -0.011
    occupation matrix before diagonalization:
  0.987  0.000  0.000  0.000  0.001
  0.000  0.959  0.001  0.001 -0.001
  0.000  0.001  0.959 -0.001 -0.001
  0.000  0.001 -0.001  0.987 -0.000
  0.001 -0.001 -0.001 -0.000  0.959
 Atom:    2   Spin:  1
    eigenvalues and eigenvectors of the occupation matrix:
  0.045
  0.991 -0.016 -0.010  0.130 -0.027
  0.045
 -0.130 -0.021  0.025  0.991  0.004
  0.094
 -0.000  0.577  0.577  0.000 -0.577
  0.139
  0.021 -0.298  0.807 -0.026  0.509
  0.139
  0.026  0.760 -0.122  0.021  0.638
    occupation matrix before diagonalization:
  0.045  0.001  0.001  0.000  0.003
  0.001  0.124 -0.015  0.002  0.015
  0.001 -0.015  0.124 -0.002  0.015
  0.000  0.002 -0.002  0.045 -0.000
  0.003  0.015  0.015 -0.000  0.124
 Atom:    3   Spin:  1
    eigenvalues and eigenvectors of the occupation matrix:
  0.911
 -0.577  0.577  0.577
  0.911
 -0.673 -0.737  0.064
  0.911
  0.463 -0.351  0.814
    occupation matrix before diagonalization:
  0.911  0.000  0.000
  0.000  0.911 -0.000
  0.000 -0.000  0.911
 Atom:    4   Spin:  1
    eigenvalues and eigenvectors of the occupation matrix:
  0.911
 -0.577  0.577  0.577
  0.911
  0.707  0.707  0.000
  0.911
  0.408 -0.408  0.816
    occupation matrix before diagonalization:
  0.911  0.000  0.000
  0.000  0.911 -0.000
  0.000 -0.000  0.911
 Atom:    1   Spin:  2
    eigenvalues and eigenvectors of the occupation matrix:
  0.045
 -0.578 -0.011  0.026  0.815  0.015
  0.045
  0.815 -0.024  0.002  0.578 -0.021
  0.095
 -0.000  0.577  0.577  0.000 -0.577
  0.138
 -0.024  0.178 -0.779  0.022 -0.601
  0.138
  0.022  0.796 -0.244  0.024  0.553
    occupation matrix before diagonalization:
  0.045  0.001  0.001  0.000  0.002
  0.001  0.123 -0.014  0.002  0.014
  0.001 -0.014  0.123 -0.002  0.014
  0.000  0.002 -0.002  0.045 -0.000
  0.002  0.014  0.014 -0.000  0.123
 Atom:    2   Spin:  2
    eigenvalues and eigenvectors of the occupation matrix:
  0.958
 -0.024 -0.219  0.790  0.024  0.571
  0.958
  0.024 -0.786  0.203  0.024 -0.583
  0.962
 -0.000 -0.577 -0.577  0.000  0.577
  0.987
 -0.977 -0.008 -0.019  0.212 -0.027
  0.987
 -0.212 -0.026  0.021 -0.977 -0.006
    occupation matrix before diagonalization:
  0.987  0.000  0.000  0.000  0.001
  0.000  0.959  0.001  0.001 -0.001
  0.000  0.001  0.959 -0.001 -0.001
  0.000  0.001 -0.001  0.987 -0.000
  0.001 -0.001 -0.001 -0.000  0.959
 Atom:    3   Spin:  2
    eigenvalues and eigenvectors of the occupation matrix:
  0.911
 -0.577  0.577  0.577
  0.911
 -0.730 -0.682 -0.048
  0.911
  0.366 -0.449  0.815
    occupation matrix before diagonalization:
  0.911  0.000  0.000
  0.000  0.911 -0.000
  0.000 -0.000  0.911
 Atom:    4   Spin:  2
    eigenvalues and eigenvectors of the occupation matrix:
  0.911
 -0.577  0.577  0.577
  0.911
 -0.627 -0.766  0.139
  0.911
  0.523 -0.282  0.805
    occupation matrix before diagonalization:
  0.911  0.000  0.000
  0.000  0.911 -0.000
  0.000 -0.000  0.911
atom    1   Tr[ns(na)]=   5.3121059
atom    1   Mag[ns(na)]=   4.3938984
atom    2   Tr[ns(na)]=   5.3141703
atom    2   Mag[ns(na)]=  -4.3916764
atom    3   Tr[ns(na)]=   5.4670289
atom    3   Mag[ns(na)]=  -0.0001255
atom    4   Tr[ns(na)]=   5.4670289
atom    4   Mag[ns(na)]=  -0.0001255
 --- exit write_nsg ---
 --- in v_hubbard_extended ---
Hubbard energy    0.4115
 -----------------------------

     total cpu time spent up to now is        3.6 secs

     total energy              =    -670.34963276 Ry
     estimated scf accuracy    <      13.62165805 Ry

     total magnetization       =     0.00 Bohr mag/cell
     absolute magnetization    =     9.27 Bohr mag/cell

     iteration #  2     ecut=    35.00 Ry     beta= 0.70
     Davidson diagonalization with overlap
     ethr =  1.00E-02,  avg # of iterations =  3.3
 --- enter write_nsg ---
 Atom:    1   Spin:  1
    eigenvalues and eigenvectors of the occupation matrix:
  0.968
  0.028 -0.257  0.799 -0.031  0.542
  0.968
  0.031  0.774 -0.164  0.028  0.610
  0.968
 -0.000 -0.577 -0.577  0.000  0.577
  0.972
  0.921 -0.004 -0.027 -0.387 -0.031
  0.972
  0.387 -0.034  0.021  0.921 -0.013
    occupation matrix before diagonalization:
  0.972 -0.000 -0.000  0.000 -0.000
 -0.000  0.968  0.000 -0.000 -0.000
 -0.000  0.000  0.968  0.000 -0.000
  0.000 -0.000  0.000  0.972 -0.000
 -0.000 -0.000 -0.000 -0.000  0.968
 Atom:    2   Spin:  1
    eigenvalues and eigenvectors of the occupation matrix:
  0.972
  0.000  0.577  0.577 -0.000 -0.577
  0.972
  0.065 -0.231  0.791 -0.068  0.559
  0.972
  0.068  0.779 -0.189  0.065  0.590
  0.974
  0.920 -0.010 -0.061 -0.380 -0.071
  0.974
  0.380 -0.076  0.047  0.920 -0.029
    occupation matrix before diagonalization:
  0.974 -0.000 -0.000  0.000 -0.000
 -0.000  0.972 -0.000 -0.000  0.000
 -0.000 -0.000  0.972  0.000  0.000
  0.000 -0.000  0.000  0.974 -0.000
 -0.000  0.000  0.000 -0.000  0.972
 Atom:    3   Spin:  1
    eigenvalues and eigenvectors of the occupation matrix:
  0.198
  0.707  0.707  0.000
  0.198
 -0.408  0.408 -0.816
  0.201
 -0.577  0.577  0.577
    occupation matrix before diagonalization:
  0.199 -0.001 -0.001
 -0.001  0.199  0.001
 -0.001  0.001  0.199
 Atom:    4   Spin:  1
    eigenvalues and eigenvectors of the occupation matrix:
  0.198
  0.740  0.668  0.072
  0.198
 -0.344  0.469 -0.813
  0.201
 -0.577  0.577  0.577
    occupation matrix before diagonalization:
  0.199 -0.001 -0.001
 -0.001  0.199  0.001
 -0.001  0.001  0.199
 Atom:    1   Spin:  2
    eigenvalues and eigenvectors of the occupation matrix:
  0.972
  0.000  0.577  0.577 -0.000 -0.577
  0.972
  0.071 -0.088  0.744 -0.052  0.656
  0.972
 -0.052 -0.809  0.328 -0.071 -0.480
  0.974
  0.969 -0.020 -0.049 -0.233 -0.070
  0.974
  0.233 -0.069  0.052  0.969 -0.017
    occupation matrix before diagonalization:
  0.974 -0.000 -0.000  0.000 -0.000
 -0.000  0.972 -0.000 -0.000  0.000
 -0.000 -0.000  0.972  0.000  0.000
  0.000 -0.000  0.000  0.974 -0.000
 -0.000  0.000  0.000 -0.000  0.972
 Atom:    2   Spin:  2
    eigenvalues and eigenvectors of the occupation matrix:
  0.968
  0.030 -0.240  0.795 -0.032  0.555
  0.968
  0.032  0.780 -0.182  0.030  0.598
  0.968
 -0.000 -0.577 -0.577  0.000  0.577
  0.972
  0.926 -0.005 -0.028 -0.375 -0.033
  0.972
  0.375 -0.035  0.022  0.926 -0.013
    occupation matrix before diagonalization:
  0.972 -0.000 -0.000  0.000 -0.000
 -0.000  0.968  0.000 -0.000 -0.000
 -0.000  0.000  0.968  0.000 -0.000
  0.000 -0.000  0.000  0.972 -0.000
 -0.000 -0.000 -0.000 -0.000  0.968
 Atom:    3   Spin:  2
    eigenvalues and eigenvectors of the occupation matrix:
  0.198
  0.707  0.707  0.000
  0.198
 -0.408  0.408 -0.816
  0.200
 -0.577  0.577  0.577
    occupation matrix before diagonalization:
  0.199 -0.001 -0.001
 -0.001  0.199  0.001
 -0.001  0.001  0.199
 Atom:    4   Spin:  2
    eigenvalues and eigenvectors of the occupation matrix:
  0.198
  0.707  0.707  0.000
  0.198
 -0.408  0.408 -0.816
  0.200
 -0.577  0.577  0.577
    occupation matrix before diagonalization:
  0.199 -0.001 -0.001
 -0.001  0.199  0.001
 -0.001  0.001  0.199
atom    1   Tr[ns(na)]=   9.7131659
atom    1   Mag[ns(na)]=  -0.0143173
atom    2   Tr[ns(na)]=   9.7133454
atom    2   Mag[ns(na)]=   0.0143695
atom    3   Tr[ns(na)]=   1.1945065
atom    3   Mag[ns(na)]=   0.0000227
atom    4   Tr[ns(na)]=   1.1945065
atom    4   Mag[ns(na)]=   0.0000227
 --- exit write_nsg ---
 --- in v_hubbard_extended ---
Hubbard energy    0.6065
 -----------------------------

     total cpu time spent up to now is        5.9 secs

     total energy              =    -672.07550895 Ry
     estimated scf accuracy    <      64.30470213 Ry

     total magnetization       =     0.00 Bohr mag/cell
     absolute magnetization    =     0.59 Bohr mag/cell

     iteration #  3     ecut=    35.00 Ry     beta= 0.70
     Davidson diagonalization with overlap
     ethr =  1.00E-02,  avg # of iterations =  3.0
 --- enter write_nsg ---
 Atom:    1   Spin:  1
    eigenvalues and eigenvectors of the occupation matrix:
  0.995
 -0.967 -0.007 -0.019  0.253 -0.026
  0.995
  0.253  0.026 -0.019  0.967  0.007
  0.998
  0.021  0.267 -0.801 -0.025 -0.534
  0.998
 -0.025  0.771 -0.154 -0.021  0.617
  0.998
  0.000 -0.577 -0.577  0.000  0.577
    occupation matrix before diagonalization:
  0.995 -0.000 -0.000  0.000 -0.000
 -0.000  0.998  0.000 -0.000 -0.000
 -0.000  0.000  0.998  0.000 -0.000
  0.000 -0.000  0.000  0.995 -0.000
 -0.000 -0.000 -0.000 -0.000  0.998
 Atom:    2   Spin:  1
    eigenvalues and eigenvectors of the occupation matrix:
  0.155
  0.961  0.004  0.011 -0.274  0.015
  0.155
  0.274  0.015 -0.011  0.961  0.004
  0.479
 -0.000  0.577  0.577  0.000 -0.577
  0.753
  0.014  0.149 -0.770 -0.012 -0.621
  0.753
 -0.012  0.803 -0.272 -0.014  0.530
    occupation matrix before diagonalization:
  0.155 -0.005 -0.005  0.000 -0.009
 -0.005  0.661 -0.091 -0.008  0.091
 -0.005 -0.091  0.661  0.008  0.091
  0.000 -0.008  0.008  0.155 -0.000
 -0.009  0.091  0.091 -0.000  0.661
 Atom:    3   Spin:  1
    eigenvalues and eigenvectors of the occupation matrix:
  0.802
  0.679  0.733 -0.054
  0.802
 -0.454  0.361 -0.815
  0.804
 -0.577  0.577  0.577
    occupation matrix before diagonalization:
  0.803 -0.001 -0.001
 -0.001  0.803  0.001
 -0.001  0.001  0.803
 Atom:    4   Spin:  1
    eigenvalues and eigenvectors of the occupation matrix:
  0.802
  0.730  0.682  0.048
  0.802
 -0.366  0.449 -0.815
  0.804
 -0.577  0.577  0.577
    occupation matrix before diagonalization:
  0.803 -0.001 -0.001
 -0.001  0.803  0.001
 -0.001  0.001  0.803
 Atom:    1   Spin:  2
    eigenvalues and eigenvectors of the occupation matrix:
  0.155
  0.619 -0.006  0.015 -0.785  0.009
  0.155
  0.785  0.014 -0.002  0.619  0.012
  0.489
 -0.000  0.577  0.577  0.000 -0.577
  0.754
  0.013  0.217 -0.790 -0.013 -0.573
  0.754
  0.013 -0.787  0.206  0.013 -0.581
    occupation matrix before diagonalization:
  0.155 -0.004 -0.004  0.000 -0.009
 -0.004  0.666 -0.088 -0.008  0.088
 -0.004 -0.088  0.666  0.008  0.088
  0.000 -0.008  0.008  0.155 -0.000
 -0.009  0.088  0.088 -0.000  0.666
 Atom:    2   Spin:  2
    eigenvalues and eigenvectors of the occupation matrix:
  0.995
  0.900  0.002  0.022 -0.434  0.024
  0.995
  0.434  0.026 -0.015  0.900  0.011
  0.998
 -0.018 -0.359  0.814  0.027  0.455
  0.998
  0.027 -0.733  0.056  0.018 -0.677
  0.998
  0.000 -0.577 -0.577  0.000  0.577
    occupation matrix before diagonalization:
  0.995 -0.000 -0.000  0.000 -0.000
 -0.000  0.998  0.000 -0.000 -0.000
 -0.000  0.000  0.998  0.000 -0.000
  0.000 -0.000  0.000  0.995 -0.000
 -0.000 -0.000 -0.000 -0.000  0.998
 Atom:    3   Spin:  2
    eigenvalues and eigenvectors of the occupation matrix:
  0.802
  0.558  0.795 -0.238
  0.802
 -0.596  0.185 -0.781
  0.805
 -0.577  0.577  0.577
    occupation matrix before diagonalization:
  0.803 -0.001 -0.001
 -0.001  0.803  0.001
 -0.001  0.001  0.803
 Atom:    4   Spin:  2
    eigenvalues and eigenvectors of the occupation matrix:
  0.802
  0.740  0.669  0.072
  0.802
 -0.345  0.469 -0.813
  0.805
 -0.577  0.577  0.577
    occupation matrix before diagonalization:
  0.803 -0.001 -0.001
 -0.001  0.803  0.001
 -0.001  0.001  0.803
atom    1   Tr[ns(na)]=   7.2910338
atom    1   Mag[ns(na)]=   2.6766164
atom    2   Tr[ns(na)]=   7.2781367
atom    2   Mag[ns(na)]=  -2.6894755
atom    3   Tr[ns(na)]=   4.8171155
atom    3   Mag[ns(na)]=   0.0000777
atom    4   Tr[ns(na)]=   4.8171155
atom    4   Mag[ns(na)]=   0.0000777
 --- exit write_nsg ---
 --- in v_hubbard_extended ---
Hubbard energy    0.5246
 -----------------------------

     total cpu time spent up to now is        7.9 secs

     total energy              =    -678.15980270 Ry
     estimated scf accuracy    <       0.55509111 Ry

     total magnetization       =    -0.01 Bohr mag/cell
     absolute magnetization    =     5.65 Bohr mag/cell

     iteration #  4     ecut=    35.00 Ry     beta= 0.70
     Davidson diagonalization with overlap
     ethr =  1.21E-03,  avg # of iterations =  2.0
 --- enter write_nsg ---
 Atom:    1   Spin:  1
    eigenvalues and eigenvectors of the occupation matrix:
  0.994
 -0.982 -0.053 -0.076  0.102 -0.128
  0.994
  0.102  0.118 -0.105  0.982  0.013
  0.996
  0.000  0.577  0.577  0.000 -0.577
  0.996
  0.104  0.257 -0.790 -0.119 -0.533
  0.996
  0.119 -0.764  0.159  0.104 -0.605
    occupation matrix before diagonalization:
  0.994 -0.000 -0.000  0.000 -0.000
 -0.000  0.996  0.000 -0.000 -0.000
 -0.000  0.000  0.996  0.000 -0.000
  0.000 -0.000  0.000  0.994 -0.000
 -0.000 -0.000 -0.000 -0.000  0.996
 Atom:    2   Spin:  1
    eigenvalues and eigenvectors of the occupation matrix:
  0.118
  0.000  0.577  0.577 -0.000 -0.577
  0.159
 -0.966 -0.007 -0.018  0.255 -0.025
  0.159
  0.255  0.025 -0.018  0.966  0.007
  0.991
  0.024  0.145 -0.768 -0.021 -0.623
  0.991
  0.021 -0.803  0.276  0.024 -0.527
    occupation matrix before diagonalization:
  0.160 -0.011 -0.011  0.000 -0.022
 -0.011  0.699 -0.291 -0.019  0.291
 -0.011 -0.291  0.699  0.019  0.291
  0.000 -0.019  0.019  0.160 -0.000
 -0.022  0.291  0.291 -0.000  0.699
 Atom:    3   Spin:  1
    eigenvalues and eigenvectors of the occupation matrix:
  0.763
 -0.577  0.577  0.577
  0.778
 -0.663 -0.744  0.081
  0.778
  0.477 -0.336  0.812
    occupation matrix before diagonalization:
  0.773  0.005  0.005
  0.005  0.773 -0.005
  0.005 -0.005  0.773
 Atom:    4   Spin:  1
    eigenvalues and eigenvectors of the occupation matrix:
  0.763
 -0.577  0.577  0.577
  0.778
 -0.663 -0.744  0.081
  0.778
  0.477 -0.336  0.812
    occupation matrix before diagonalization:
  0.773  0.005  0.005
  0.005  0.773 -0.005
  0.005 -0.005  0.773
 Atom:    1   Spin:  2
    eigenvalues and eigenvectors of the occupation matrix:
  0.117
  0.000  0.577  0.577 -0.000 -0.577
  0.153
  0.818 -0.003  0.029 -0.574  0.026
  0.153
 -0.574 -0.031  0.013 -0.818 -0.018
  0.930
  0.022  0.355 -0.814 -0.032 -0.459
  0.930
 -0.032  0.735 -0.060 -0.022  0.675
    occupation matrix before diagonalization:
  0.154 -0.012 -0.012  0.000 -0.024
 -0.012  0.658 -0.271 -0.021  0.271
 -0.012 -0.271  0.658  0.021  0.271
  0.000 -0.021  0.021  0.154 -0.000
 -0.024  0.271  0.271 -0.000  0.658
 Atom:    2   Spin:  2
    eigenvalues and eigenvectors of the occupation matrix:
  0.994
 -0.954 -0.032 -0.088  0.258 -0.119
  0.994
  0.258  0.120 -0.087  0.954  0.032
  0.996
  0.103  0.235 -0.786 -0.111 -0.551
  0.996
 -0.111  0.772 -0.183 -0.103  0.590
  0.996
  0.000 -0.577 -0.577  0.000  0.577
    occupation matrix before diagonalization:
  0.994 -0.000 -0.000  0.000 -0.000
 -0.000  0.996  0.000 -0.000 -0.000
 -0.000  0.000  0.996  0.000 -0.000
  0.000 -0.000  0.000  0.994 -0.000
 -0.000 -0.000 -0.000 -0.000  0.996
 Atom:    3   Spin:  2
    eigenvalues and eigenvectors of the occupation matrix:
  0.765
 -0.577  0.577  0.577
  0.775
  0.707  0.707  0.000
  0.775
  0.408 -0.408  0.816
    occupation matrix before diagonalization:
  0.772  0.003  0.003
  0.003  0.772 -0.003
  0.003 -0.003  0.772
 Atom:    4   Spin:  2
    eigenvalues and eigenvectors of the occupation matrix:
  0.765
 -0.577  0.577  0.577
  0.775
  0.707  0.707  0.000
  0.775
  0.408 -0.408  0.816
    occupation matrix before diagonalization:
  0.772  0.003  0.003
  0.003  0.772 -0.003
  0.003 -0.003  0.772
atom    1   Tr[ns(na)]=   7.2602352
atom    1   Mag[ns(na)]=   2.6936553
atom    2   Tr[ns(na)]=   7.3948157
atom    2   Mag[ns(na)]=  -2.5599222
atom    3   Tr[ns(na)]=   4.6345112
atom    3   Mag[ns(na)]=   0.0045092
atom    4   Tr[ns(na)]=   4.6345112
atom    4   Mag[ns(na)]=   0.0045092
 --- exit write_nsg ---
 --- in v_hubbard_extended ---
Hubbard energy    0.3850
 -----------------------------

     total cpu time spent up to now is        9.7 secs

     total energy              =    -678.39139803 Ry
     estimated scf accuracy    <       0.34478569 Ry

     total magnetization       =     0.14 Bohr mag/cell
     absolute magnetization    =     5.53 Bohr mag/cell

     iteration #  5     ecut=    35.00 Ry     beta= 0.70
     Davidson diagonalization with overlap
     ethr =  7.50E-04,  avg # of iterations =  1.5
 --- enter write_nsg ---
 Atom:    1   Spin:  1
    eigenvalues and eigenvectors of the occupation matrix:
  0.995
 -0.961 -0.090 -0.124  0.089 -0.214
  0.995
 -0.089 -0.195  0.175 -0.961 -0.020
  0.996
 -0.149 -0.340  0.785  0.217  0.446
  0.996
  0.217 -0.711  0.061  0.149 -0.650
  0.997
  0.000 -0.577 -0.577 -0.000  0.577
    occupation matrix before diagonalization:
  0.996 -0.000 -0.000  0.000 -0.000
 -0.000  0.997  0.000 -0.000 -0.000
 -0.000  0.000  0.997  0.000 -0.000
  0.000 -0.000  0.000  0.996 -0.000
 -0.000 -0.000 -0.000 -0.000  0.997
 Atom:    2   Spin:  1
    eigenvalues and eigenvectors of the occupation matrix:
  0.046
  0.000  0.577  0.577 -0.000 -0.577
  0.112
  0.591 -0.020  0.049 -0.804  0.029
  0.112
 -0.804 -0.045  0.005 -0.591 -0.040
  0.980
  0.035  0.331 -0.811 -0.049 -0.479
  0.980
 -0.049  0.745 -0.086 -0.035  0.659
    occupation matrix before diagonalization:
  0.115 -0.021 -0.021  0.000 -0.043
 -0.021  0.667 -0.310 -0.037  0.310
 -0.021 -0.310  0.667  0.037  0.310
  0.000 -0.037  0.037  0.115 -0.000
 -0.043  0.310  0.310 -0.000  0.667
 Atom:    3   Spin:  1
    eigenvalues and eigenvectors of the occupation matrix:
  0.798
 -0.577  0.577  0.577
  0.805
 -0.651 -0.752  0.102
  0.805
  0.493 -0.317  0.810
    occupation matrix before diagonalization:
  0.803  0.002  0.002
  0.002  0.803 -0.002
  0.002 -0.002  0.803
 Atom:    4   Spin:  1
    eigenvalues and eigenvectors of the occupation matrix:
  0.798
 -0.577  0.577  0.577
  0.805
  0.707  0.707  0.000
  0.805
  0.408 -0.408  0.816
    occupation matrix before diagonalization:
  0.803  0.002  0.002
  0.002  0.803 -0.002
  0.002 -0.002  0.803
 Atom:    1   Spin:  2
    eigenvalues and eigenvectors of the occupation matrix:
  0.062
  0.000  0.577  0.577 -0.000 -0.577
  0.149
  0.924  0.006  0.037 -0.378  0.044
  0.149
 -0.378 -0.047  0.029 -0.924 -0.018
  0.984
  0.040  0.220 -0.790 -0.041 -0.570
  0.984
  0.041 -0.785  0.202  0.040 -0.583
    occupation matrix before diagonalization:
  0.152 -0.020 -0.020  0.000 -0.039
 -0.020  0.675 -0.307 -0.034  0.307
 -0.020 -0.307  0.675  0.034  0.307
  0.000 -0.034  0.034  0.152 -0.000
 -0.039  0.307  0.307 -0.000  0.675
 Atom:    2   Spin:  2
    eigenvalues and eigenvectors of the occupation matrix:
  0.993
 -0.856 -0.082 -0.266  0.262 -0.347
  0.993
 -0.262 -0.354  0.248 -0.856 -0.106
  0.995
 -0.248 -0.322  0.730  0.369  0.408
  0.995
  0.369 -0.657  0.050  0.248 -0.607
  0.996
  0.000 -0.577 -0.577 -0.000  0.577
    occupation matrix before diagonalization:
  0.993 -0.000 -0.000  0.000 -0.001
 -0.000  0.995  0.000 -0.001 -0.000
 -0.000  0.000  0.995  0.001 -0.000
  0.000 -0.001  0.001  0.993 -0.000
 -0.001 -0.000 -0.000 -0.000  0.995
 Atom:    3   Spin:  2
    eigenvalues and eigenvectors of the occupation matrix:
  0.783
 -0.577  0.577  0.577
  0.796
 -0.634 -0.763  0.129
  0.796
  0.515 -0.291  0.806
    occupation matrix before diagonalization:
  0.792  0.004  0.004
  0.004  0.792 -0.004
  0.004 -0.004  0.792
 Atom:    4   Spin:  2
    eigenvalues and eigenvectors of the occupation matrix:
  0.783
 -0.577  0.577  0.577
  0.796
  0.707  0.707  0.000
  0.796
  0.408 -0.408  0.816
    occupation matrix before diagonalization:
  0.792  0.004  0.004
  0.004  0.792 -0.004
  0.004 -0.004  0.792
atom    1   Tr[ns(na)]=   7.3091155
atom    1   Mag[ns(na)]=   2.6528597
atom    2   Tr[ns(na)]=   7.2024313
atom    2   Mag[ns(na)]=  -2.7389178
atom    3   Tr[ns(na)]=   4.7825505
atom    3   Mag[ns(na)]=   0.0333339
atom    4   Tr[ns(na)]=   4.7825505
atom    4   Mag[ns(na)]=   0.0333339
 --- exit write_nsg ---
 --- in v_hubbard_extended ---
Hubbard energy    0.2201
 -----------------------------

     total cpu time spent up to now is       11.3 secs

     total energy              =    -678.46631803 Ry
     estimated scf accuracy    <       0.11085734 Ry

     total magnetization       =    -0.01 Bohr mag/cell
     absolute magnetization    =     5.61 Bohr mag/cell

     iteration #  6     ecut=    35.00 Ry     beta= 0.70
     Davidson diagonalization with overlap
     ethr =  2.41E-04,  avg # of iterations =  2.6
 --- enter write_nsg ---
 Atom:    1   Spin:  1
    eigenvalues and eigenvectors of the occupation matrix:
  0.992
  0.714  0.157  0.382 -0.172  0.539
  0.992
 -0.172 -0.532  0.402 -0.714 -0.130
  0.993
 -0.321 -0.316  0.599  0.599  0.283
  0.993
  0.599 -0.509 -0.019  0.321 -0.528
  0.994
  0.000 -0.577 -0.577 -0.000  0.577
    occupation matrix before diagonalization:
  0.992 -0.000 -0.000  0.000 -0.001
 -0.000  0.993  0.001 -0.000 -0.001
 -0.000  0.001  0.993  0.000 -0.001
  0.000 -0.000  0.000  0.992 -0.000
 -0.001 -0.001 -0.001 -0.000  0.993
 Atom:    2   Spin:  1
    eigenvalues and eigenvectors of the occupation matrix:
  0.049
  0.000  0.577  0.577 -0.000 -0.577
  0.167
 -0.961 -0.017 -0.048  0.264 -0.065
  0.167
  0.264  0.065 -0.047  0.961  0.018
  0.990
  0.068  0.051 -0.729 -0.045 -0.678
  0.990
  0.045 -0.812  0.362  0.068 -0.450
    occupation matrix before diagonalization:
  0.173 -0.027 -0.027  0.000 -0.055
 -0.027  0.673 -0.312 -0.048  0.312
 -0.027 -0.312  0.673  0.048  0.312
  0.000 -0.048  0.048  0.173 -0.000
 -0.055  0.312  0.312 -0.000  0.673
 Atom:    3   Spin:  1
    eigenvalues and eigenvectors of the occupation matrix:
  0.777
 -0.577  0.577  0.577
  0.793
 -0.727 -0.685 -0.041
  0.793
  0.372 -0.444  0.815
    occupation matrix before diagonalization:
  0.788  0.005  0.005
  0.005  0.788 -0.005
  0.005 -0.005  0.788
 Atom:    4   Spin:  1
    eigenvalues and eigenvectors of the occupation matrix:
  0.777
 -0.577  0.577  0.577
  0.793
  0.707  0.707  0.000
  0.793
  0.408 -0.408  0.816
    occupation matrix before diagonalization:
  0.788  0.005  0.005
  0.005  0.788 -0.005
  0.005 -0.005  0.788
 Atom:    1   Spin:  2
    eigenvalues and eigenvectors of the occupation matrix:
  0.031
  0.000  0.577  0.577 -0.000 -0.577
  0.099
 -0.060 -0.065  0.061 -0.994 -0.004
  0.099
  0.994  0.033  0.040 -0.060  0.073
  0.978
  0.057  0.280 -0.801 -0.069 -0.521
  0.978
 -0.069  0.764 -0.139 -0.057  0.624
    occupation matrix before diagonalization:
  0.106 -0.032 -0.032  0.000 -0.064
 -0.032  0.658 -0.313 -0.055  0.313
 -0.032 -0.313  0.658  0.055  0.313
  0.000 -0.055  0.055  0.106 -0.000
 -0.064  0.313  0.313 -0.000  0.658
 Atom:    2   Spin:  2
    eigenvalues and eigenvectors of the occupation matrix:
  0.996
 -0.926 -0.044 -0.146  0.288 -0.190
  0.996
 -0.288 -0.194  0.135 -0.926 -0.059
  0.997
  0.129  0.372 -0.791 -0.207 -0.420
  0.997
  0.207 -0.699  0.028  0.129 -0.671
  0.998
  0.000 -0.577 -0.577 -0.000  0.577
    occupation matrix before diagonalization:
  0.996 -0.000 -0.000  0.000 -0.000
 -0.000  0.997  0.000 -0.000 -0.000
 -0.000  0.000  0.997  0.000 -0.000
  0.000 -0.000  0.000  0.996 -0.000
 -0.000 -0.000 -0.000 -0.000  0.997
 Atom:    3   Spin:  2
    eigenvalues and eigenvectors of the occupation matrix:
  0.802
 -0.577  0.577  0.577
  0.806
  0.707  0.707  0.000
  0.806
  0.408 -0.408  0.816
    occupation matrix before diagonalization:
  0.805  0.001  0.001
  0.001  0.805 -0.001
  0.001 -0.001  0.805
 Atom:    4   Spin:  2
    eigenvalues and eigenvectors of the occupation matrix:
  0.802
 -0.577  0.577  0.577
  0.806
 -0.539 -0.801  0.262
  0.806
  0.614 -0.159  0.773
    occupation matrix before diagonalization:
  0.805  0.001  0.001
  0.001  0.805 -0.001
  0.001 -0.001  0.805
atom    1   Tr[ns(na)]=   7.1490258
atom    1   Mag[ns(na)]=   2.7776738
atom    2   Tr[ns(na)]=   7.3458307
atom    2   Mag[ns(na)]=  -2.6193390
atom    3   Tr[ns(na)]=   4.7765930
atom    3   Mag[ns(na)]=  -0.0508172
atom    4   Tr[ns(na)]=   4.7765930
atom    4   Mag[ns(na)]=  -0.0508172
 --- exit write_nsg ---
 --- in v_hubbard_extended ---
Hubbard energy    0.1233
 -----------------------------

     total cpu time spent up to now is       13.2 secs

     total energy              =    -678.47650333 Ry
     estimated scf accuracy    <       0.12089639 Ry

     total magnetization       =     0.04 Bohr mag/cell
     absolute magnetization    =     5.60 Bohr mag/cell

     iteration #  7     ecut=    35.00 Ry     beta= 0.70
     Davidson diagonalization with overlap
     ethr =  2.41E-04,  avg # of iterations =  2.0
 --- enter write_nsg ---
 Atom:    1   Spin:  1
    eigenvalues and eigenvectors of the occupation matrix:
  0.994
  0.503 -0.010  0.578 -0.300  0.568
  0.994
 -0.300 -0.662  0.322 -0.503 -0.339
  0.995
 -0.434 -0.222  0.478  0.684  0.256
  0.995
 -0.684  0.424 -0.020 -0.434  0.404
  0.997
  0.000 -0.577 -0.577 -0.000  0.577
    occupation matrix before diagonalization:
  0.995 -0.000 -0.000  0.000 -0.001
 -0.000  0.995  0.001 -0.001 -0.001
 -0.000  0.001  0.995  0.001 -0.001
  0.000 -0.001  0.001  0.995 -0.000
 -0.001 -0.001 -0.001 -0.000  0.995
 Atom:    2   Spin:  1
    eigenvalues and eigenvectors of the occupation matrix:
  0.032
  0.000  0.577  0.577 -0.000 -0.577
  0.124
 -0.445  0.046 -0.083  0.890 -0.037
  0.124
  0.890  0.070  0.005  0.445  0.075
  0.988
  0.054  0.382 -0.812 -0.087 -0.430
  0.988
 -0.087  0.717 -0.028 -0.054  0.689
    occupation matrix before diagonalization:
  0.133 -0.036 -0.036  0.000 -0.072
 -0.036  0.663 -0.316 -0.062  0.316
 -0.036 -0.316  0.663  0.062  0.316
  0.000 -0.062  0.062  0.133 -0.000
 -0.072  0.316  0.316 -0.000  0.663
 Atom:    3   Spin:  1
    eigenvalues and eigenvectors of the occupation matrix:
  0.794
 -0.577  0.577  0.577
  0.800
  0.707  0.707  0.000
  0.800
  0.408 -0.408  0.816
    occupation matrix before diagonalization:
  0.798  0.002  0.002
  0.002  0.798 -0.002
  0.002 -0.002  0.798
 Atom:    4   Spin:  1
    eigenvalues and eigenvectors of the occupation matrix:
  0.794
 -0.577  0.577  0.577
  0.800
  0.707  0.707  0.000
  0.800
  0.408 -0.408  0.816
    occupation matrix before diagonalization:
  0.798  0.002  0.002
  0.002  0.798 -0.002
  0.002 -0.002  0.798
 Atom:    1   Spin:  2
    eigenvalues and eigenvectors of the occupation matrix:
  0.033
  0.000  0.577  0.577 -0.000 -0.577
  0.126
 -0.228  0.061 -0.081  0.968 -0.019
  0.126
  0.968  0.058  0.024  0.228  0.082
  0.987
 -0.043 -0.471  0.808  0.094  0.337
  0.987
  0.094 -0.662 -0.077  0.043 -0.739
    occupation matrix before diagonalization:
  0.135 -0.036 -0.036  0.000 -0.072
 -0.036  0.663 -0.315 -0.062  0.315
 -0.036 -0.315  0.663  0.062  0.315
  0.000 -0.062  0.062  0.135 -0.000
 -0.072  0.315  0.315 -0.000  0.663
 Atom:    2   Spin:  2
    eigenvalues and eigenvectors of the occupation matrix:
  0.994
 -0.629 -0.069 -0.477  0.271 -0.546
  0.994
 -0.271 -0.591  0.355 -0.629 -0.236
  0.996
  0.386  0.262 -0.559 -0.618 -0.296
  0.996
 -0.618  0.494 -0.020 -0.386  0.474
  0.997
 -0.000  0.577  0.577  0.000 -0.577
    occupation matrix before diagonalization:
  0.995 -0.000 -0.000  0.000 -0.001
 -0.000  0.995  0.001 -0.001 -0.001
 -0.000  0.001  0.995  0.001 -0.001
  0.000 -0.001  0.001  0.995 -0.000
 -0.001 -0.001 -0.001 -0.000  0.995
 Atom:    3   Spin:  2
    eigenvalues and eigenvectors of the occupation matrix:
  0.794
 -0.577  0.577  0.577
  0.799
 -0.748 -0.658 -0.090
  0.799
  0.328 -0.484  0.812
    occupation matrix before diagonalization:
  0.797  0.002  0.002
  0.002  0.797 -0.002
  0.002 -0.002  0.797
 Atom:    4   Spin:  2
    eigenvalues and eigenvectors of the occupation matrix:
  0.794
 -0.577  0.577  0.577
  0.799
  0.707  0.707  0.000
  0.799
  0.408 -0.408  0.816
    occupation matrix before diagonalization:
  0.797  0.002  0.002
  0.002  0.797 -0.002
  0.002 -0.002  0.797
atom    1   Tr[ns(na)]=   7.2334305
atom    1   Mag[ns(na)]=   2.7162298
atom    2   Tr[ns(na)]=   7.2304608
atom    2   Mag[ns(na)]=  -2.7188980
atom    3   Tr[ns(na)]=   4.7854508
atom    3   Mag[ns(na)]=   0.0033930
atom    4   Tr[ns(na)]=   4.7854508
atom    4   Mag[ns(na)]=   0.0033930
 --- exit write_nsg ---
 --- in v_hubbard_extended ---
Hubbard energy    0.1370
 -----------------------------

     total cpu time spent up to now is       15.0 secs

     total energy              =    -678.49817410 Ry
     estimated scf accuracy    <       0.00356200 Ry

     total magnetization       =     0.00 Bohr mag/cell
     absolute magnetization    =     5.61 Bohr mag/cell

     iteration #  8     ecut=    35.00 Ry     beta= 0.70
     Davidson diagonalization with overlap
     ethr =  7.74E-06,  avg # of iterations =  3.7
 --- enter write_nsg ---
 Atom:    1   Spin:  1
    eigenvalues and eigenvectors of the occupation matrix:
  0.994
  0.563  0.087  0.513 -0.231  0.600
  0.994
 -0.231 -0.642  0.396 -0.563 -0.246
  0.995
  0.430  0.227 -0.496 -0.667 -0.269
  0.995
 -0.667  0.442 -0.024 -0.430  0.417
  0.997
  0.000 -0.577 -0.577 -0.000  0.577
    occupation matrix before diagonalization:
  0.995 -0.000 -0.000  0.000 -0.001
 -0.000  0.995  0.001 -0.000 -0.001
 -0.000  0.001  0.995  0.000 -0.001
  0.000 -0.000  0.000  0.995 -0.000
 -0.001 -0.001 -0.001 -0.000  0.995
 Atom:    2   Spin:  1
    eigenvalues and eigenvectors of the occupation matrix:
  0.032
  0.000  0.577  0.577 -0.000 -0.577
  0.122
  0.929  0.015  0.071 -0.353  0.086
  0.122
 -0.353 -0.091  0.058 -0.929 -0.033
  0.987
  0.078  0.226 -0.788 -0.081 -0.562
  0.987
  0.081 -0.779  0.194  0.078 -0.585
    occupation matrix before diagonalization:
  0.133 -0.040 -0.040  0.000 -0.079
 -0.040  0.662 -0.315 -0.069  0.315
 -0.040 -0.315  0.662  0.069  0.315
  0.000 -0.069  0.069  0.133 -0.000
 -0.079  0.315  0.315 -0.000  0.662
 Atom:    3   Spin:  1
    eigenvalues and eigenvectors of the occupation matrix:
  0.797
 -0.577  0.577  0.577
  0.803
 -0.736 -0.675 -0.061
  0.803
  0.354 -0.460  0.814
    occupation matrix before diagonalization:
  0.801  0.002  0.002
  0.002  0.801 -0.002
  0.002 -0.002  0.801
 Atom:    4   Spin:  1
    eigenvalues and eigenvectors of the occupation matrix:
  0.797
 -0.577  0.577  0.577
  0.803
 -0.677 -0.734  0.057
  0.803
  0.457 -0.358  0.815
    occupation matrix before diagonalization:
  0.801  0.002  0.002
  0.002  0.801 -0.002
  0.002 -0.002  0.801
 Atom:    1   Spin:  2
    eigenvalues and eigenvectors of the occupation matrix:
  0.032
  0.000  0.577  0.577 -0.000 -0.577
  0.123
  0.927  0.014  0.072 -0.357  0.087
  0.123
 -0.357 -0.092  0.058 -0.927 -0.033
  0.987
  0.079  0.222 -0.787 -0.082 -0.565
  0.987
 -0.082  0.780 -0.198 -0.079  0.582
    occupation matrix before diagonalization:
  0.134 -0.040 -0.040  0.000 -0.080
 -0.040  0.661 -0.315 -0.069  0.315
 -0.040 -0.315  0.661  0.069  0.315
  0.000 -0.069  0.069  0.134 -0.000
 -0.080  0.315  0.315 -0.000  0.661
 Atom:    2   Spin:  2
    eigenvalues and eigenvectors of the occupation matrix:
  0.994
  0.588  0.070  0.504 -0.256  0.574
  0.994
 -0.256 -0.623  0.372 -0.588 -0.250
  0.995
  0.457  0.208 -0.520 -0.617 -0.312
  0.995
 -0.617  0.480 -0.060 -0.457  0.421
  0.997
  0.000 -0.577 -0.577 -0.000  0.577
    occupation matrix before diagonalization:
  0.995 -0.000 -0.000  0.000 -0.001
 -0.000  0.995  0.001 -0.000 -0.001
 -0.000  0.001  0.995  0.000 -0.001
  0.000 -0.000  0.000  0.995 -0.000
 -0.001 -0.001 -0.001 -0.000  0.995
 Atom:    3   Spin:  2
    eigenvalues and eigenvectors of the occupation matrix:
  0.797
 -0.577  0.577  0.577
  0.803
 -0.730 -0.682 -0.048
  0.803
  0.366 -0.449  0.815
    occupation matrix before diagonalization:
  0.801  0.002  0.002
  0.002  0.801 -0.002
  0.002 -0.002  0.801
 Atom:    4   Spin:  2
    eigenvalues and eigenvectors of the occupation matrix:
  0.797
 -0.577  0.577  0.577
  0.803
 -0.726 -0.687 -0.039
  0.803
  0.374 -0.441  0.816
    occupation matrix before diagonalization:
  0.801  0.002  0.002
  0.002  0.801 -0.002
  0.002 -0.002  0.801
atom    1   Tr[ns(na)]=   7.2273430
atom    1   Mag[ns(na)]=   2.7236621
atom    2   Tr[ns(na)]=   7.2268655
atom    2   Mag[ns(na)]=  -2.7237931
atom    3   Tr[ns(na)]=   4.8055995
atom    3   Mag[ns(na)]=   0.0011563
atom    4   Tr[ns(na)]=   4.8055995
atom    4   Mag[ns(na)]=   0.0011563
 --- exit write_nsg ---
 --- in v_hubbard_extended ---
Hubbard energy    0.1340
 -----------------------------

     total cpu time spent up to now is       16.8 secs

     total energy              =    -678.49927560 Ry
     estimated scf accuracy    <       0.00127005 Ry

     total magnetization       =     0.00 Bohr mag/cell
     absolute magnetization    =     5.62 Bohr mag/cell

     iteration #  9     ecut=    35.00 Ry     beta= 0.70
     Davidson diagonalization with overlap
     ethr =  2.76E-06,  avg # of iterations =  2.6
 --- enter write_nsg ---
 Atom:    1   Spin:  1
    eigenvalues and eigenvectors of the occupation matrix:
  0.995
 -0.525 -0.095 -0.530  0.211 -0.625
  0.995
 -0.211 -0.666  0.416 -0.525 -0.251
  0.995
 -0.544 -0.148  0.453  0.620  0.305
  0.995
  0.620 -0.438  0.090  0.544 -0.347
  0.997
  0.000 -0.577 -0.577 -0.000  0.577
    occupation matrix before diagonalization:
  0.995 -0.000 -0.000  0.000 -0.000
 -0.000  0.995  0.001 -0.000 -0.001
 -0.000  0.001  0.995  0.000 -0.001
  0.000 -0.000  0.000  0.995 -0.000
 -0.000 -0.001 -0.001 -0.000  0.995
 Atom:    2   Spin:  1
    eigenvalues and eigenvectors of the occupation matrix:
  0.032
  0.000  0.577  0.577 -0.000 -0.577
  0.122
  0.667 -0.035  0.113 -0.731  0.078
  0.122
 -0.731 -0.111  0.025 -0.667 -0.086
  0.987
  0.105  0.175 -0.771 -0.096 -0.596
  0.987
  0.096 -0.789  0.243  0.105 -0.546
    occupation matrix before diagonalization:
  0.139 -0.050 -0.050  0.000 -0.099
 -0.050  0.657 -0.313 -0.086  0.313
 -0.050 -0.313  0.657  0.086  0.313
  0.000 -0.086  0.086  0.139 -0.000
 -0.099  0.313  0.313 -0.000  0.657
 Atom:    3   Spin:  1
    eigenvalues and eigenvectors of the occupation matrix:
  0.795
 -0.577  0.577  0.577
  0.803
 -0.746 -0.660 -0.086
  0.803
  0.332 -0.480  0.812
    occupation matrix before diagonalization:
  0.800  0.003  0.003
  0.003  0.800 -0.003
  0.003 -0.003  0.800
 Atom:    4   Spin:  1
    eigenvalues and eigenvectors of the occupation matrix:
  0.795
 -0.577  0.577  0.577
  0.803
  0.707  0.707  0.000
  0.803
  0.408 -0.408  0.816
    occupation matrix before diagonalization:
  0.800  0.003  0.003
  0.003  0.800 -0.003
  0.003 -0.003  0.800
 Atom:    1   Spin:  2
    eigenvalues and eigenvectors of the occupation matrix:
  0.032
  0.000  0.577  0.577 -0.000 -0.577
  0.124
  0.980  0.044  0.072 -0.137  0.115
  0.124
 -0.137 -0.108  0.092 -0.980 -0.016
  0.987
  0.082  0.342 -0.805 -0.117 -0.463
  0.987
 -0.117  0.732 -0.070 -0.082  0.662
    occupation matrix before diagonalization:
  0.141 -0.050 -0.050  0.000 -0.099
 -0.050  0.657 -0.313 -0.086  0.313
 -0.050 -0.313  0.657  0.086  0.313
  0.000 -0.086  0.086  0.141 -0.000
 -0.099  0.313  0.313 -0.000  0.657
 Atom:    2   Spin:  2
    eigenvalues and eigenvectors of the occupation matrix:
  0.994
  0.617  0.113  0.469 -0.218  0.582
  0.994
 -0.218 -0.607  0.402 -0.617 -0.205
  0.995
  0.471  0.196 -0.528 -0.592 -0.332
  0.995
 -0.592  0.497 -0.079 -0.471  0.418
  0.997
  0.000 -0.577 -0.577 -0.000  0.577
    occupation matrix before diagonalization:
  0.995 -0.000 -0.000  0.000 -0.000
 -0.000  0.995  0.001 -0.000 -0.001
 -0.000  0.001  0.995  0.000 -0.001
  0.000 -0.000  0.000  0.995 -0.000
 -0.000 -0.001 -0.001 -0.000  0.995
 Atom:    3   Spin:  2
    eigenvalues and eigenvectors of the occupation matrix:
  0.794
 -0.577  0.577  0.577
  0.802
 -0.742 -0.667 -0.075
  0.802
  0.342 -0.471  0.813
    occupation matrix before diagonalization:
  0.799  0.003  0.003
  0.003  0.799 -0.003
  0.003 -0.003  0.799
 Atom:    4   Spin:  2
    eigenvalues and eigenvectors of the occupation matrix:
  0.794
 -0.577  0.577  0.577
  0.802
  0.707  0.707  0.000
  0.802
  0.408 -0.408  0.816
    occupation matrix before diagonalization:
  0.799  0.003  0.003
  0.003  0.799 -0.003
  0.003 -0.003  0.799
atom    1   Tr[ns(na)]=   7.2298503
atom    1   Mag[ns(na)]=   2.7226268
atom    2   Tr[ns(na)]=   7.2245875
atom    2   Mag[ns(na)]=  -2.7260733
atom    3   Tr[ns(na)]=   4.7995036
atom    3   Mag[ns(na)]=   0.0027939
atom    4   Tr[ns(na)]=   4.7995036
atom    4   Mag[ns(na)]=   0.0027939
 --- exit write_nsg ---
 --- in v_hubbard_extended ---
Hubbard energy    0.1315
 -----------------------------

     total cpu time spent up to now is       18.6 secs

     total energy              =    -678.50095841 Ry
     estimated scf accuracy    <       0.00042452 Ry

     total magnetization       =     0.00 Bohr mag/cell
     absolute magnetization    =     5.63 Bohr mag/cell

     iteration # 10     ecut=    35.00 Ry     beta= 0.70
     Davidson diagonalization with overlap
     ethr =  9.23E-07,  avg # of iterations =  3.4
 --- enter write_nsg ---
 Atom:    1   Spin:  1
    eigenvalues and eigenvectors of the occupation matrix:
  0.995
  0.449  0.019  0.599 -0.243  0.617
  0.995
  0.243  0.702 -0.367  0.449  0.335
  0.995
  0.428  0.210 -0.417 -0.746 -0.207
  0.995
 -0.746  0.360  0.001 -0.428  0.362
  0.997
  0.000 -0.577 -0.577 -0.000  0.577
    occupation matrix before diagonalization:
  0.995 -0.000 -0.000  0.000 -0.000
 -0.000  0.995  0.001 -0.000 -0.001
 -0.000  0.001  0.995  0.000 -0.001
  0.000 -0.000  0.000  0.995 -0.000
 -0.000 -0.001 -0.001 -0.000  0.995
 Atom:    2   Spin:  1
    eigenvalues and eigenvectors of the occupation matrix:
  0.031
  0.000  0.577  0.577 -0.000 -0.577
  0.122
 -0.267  0.093 -0.128  0.950 -0.036
  0.122
  0.950  0.095  0.033  0.267  0.128
  0.987
  0.093  0.342 -0.803 -0.133 -0.460
  0.987
 -0.133  0.729 -0.068 -0.093  0.661
    occupation matrix before diagonalization:
  0.145 -0.057 -0.057  0.000 -0.113
 -0.057  0.653 -0.311 -0.098  0.311
 -0.057 -0.311  0.653  0.098  0.311
  0.000 -0.098  0.098  0.145 -0.000
 -0.113  0.311  0.311 -0.000  0.653
 Atom:    3   Spin:  1
    eigenvalues and eigenvectors of the occupation matrix:
  0.794
 -0.577  0.577  0.577
  0.804
 -0.609 -0.776  0.167
  0.804
  0.544 -0.255  0.799
    occupation matrix before diagonalization:
  0.800  0.003  0.003
  0.003  0.800 -0.003
  0.003 -0.003  0.800
 Atom:    4   Spin:  1
    eigenvalues and eigenvectors of the occupation matrix:
  0.794
 -0.577  0.577  0.577
  0.804
  0.707  0.707  0.000
  0.804
  0.408 -0.408  0.816
    occupation matrix before diagonalization:
  0.800  0.003  0.003
  0.003  0.800 -0.003
  0.003 -0.003  0.800
 Atom:    1   Spin:  2
    eigenvalues and eigenvectors of the occupation matrix:
  0.031
  0.000  0.577  0.577 -0.000 -0.577
  0.122
 -0.835  0.005 -0.118  0.526 -0.113
  0.122
  0.526  0.133 -0.062  0.835  0.071
  0.987
  0.097  0.321 -0.800 -0.131 -0.480
  0.987
 -0.131  0.739 -0.092 -0.097  0.647
    occupation matrix before diagonalization:
  0.145 -0.057 -0.057  0.000 -0.114
 -0.057  0.653 -0.311 -0.098  0.311
 -0.057 -0.311  0.653  0.098  0.311
  0.000 -0.098  0.098  0.145 -0.000
 -0.114  0.311  0.311 -0.000  0.653
 Atom:    2   Spin:  2
    eigenvalues and eigenvectors of the occupation matrix:
  0.995
 -0.588 -0.108 -0.489  0.216 -0.597
  0.995
 -0.216 -0.627  0.407 -0.588 -0.220
  0.995
 -0.585 -0.101  0.485  0.515  0.384
  0.995
  0.515 -0.501  0.164  0.585 -0.338
  0.997
  0.000 -0.577 -0.577 -0.000  0.577
    occupation matrix before diagonalization:
  0.995 -0.000 -0.000  0.000 -0.000
 -0.000  0.995  0.001 -0.000 -0.001
 -0.000  0.001  0.995  0.000 -0.001
  0.000 -0.000  0.000  0.995 -0.000
 -0.000 -0.001 -0.001 -0.000  0.995
 Atom:    3   Spin:  2
    eigenvalues and eigenvectors of the occupation matrix:
  0.794
 -0.577  0.577  0.577
  0.803
 -0.735 -0.675 -0.060
  0.803
  0.355 -0.459  0.814
    occupation matrix before diagonalization:
  0.800  0.003  0.003
  0.003  0.800 -0.003
  0.003 -0.003  0.800
 Atom:    4   Spin:  2
    eigenvalues and eigenvectors of the occupation matrix:
  0.794
 -0.577  0.577  0.577
  0.803
 -0.745 -0.662 -0.082
  0.803
  0.335 -0.477  0.812
    occupation matrix before diagonalization:
  0.800  0.003  0.003
  0.003  0.800 -0.003
  0.003 -0.003  0.800
atom    1   Tr[ns(na)]=   7.2259014
atom    1   Mag[ns(na)]=   2.7265063
atom    2   Tr[ns(na)]=   7.2257832
atom    2   Mag[ns(na)]=  -2.7259106
atom    3   Tr[ns(na)]=   4.8006996
atom    3   Mag[ns(na)]=   0.0008163
atom    4   Tr[ns(na)]=   4.8006996
atom    4   Mag[ns(na)]=   0.0008163
 --- exit write_nsg ---
 --- in v_hubbard_extended ---
Hubbard energy    0.1281
 -----------------------------

     total cpu time spent up to now is       20.3 secs

     total energy              =    -678.50154916 Ry
     estimated scf accuracy    <       0.00011323 Ry

     total magnetization       =     0.00 Bohr mag/cell
     absolute magnetization    =     5.63 Bohr mag/cell

     iteration # 11     ecut=    35.00 Ry     beta= 0.70
     Davidson diagonalization with overlap
     ethr =  2.46E-07,  avg # of iterations =  2.1
 --- enter write_nsg ---
 Atom:    1   Spin:  1
    eigenvalues and eigenvectors of the occupation matrix:
  0.995
  0.185 -0.122  0.740 -0.149  0.618
  0.995
  0.149  0.784 -0.287  0.185  0.497
  0.995
  0.836  0.002 -0.169 -0.495 -0.167
  0.995
  0.495 -0.194  0.095  0.836 -0.099
  0.996
  0.000 -0.577 -0.577 -0.000  0.577
    occupation matrix before diagonalization:
  0.995 -0.000 -0.000  0.000 -0.000
 -0.000  0.995  0.001 -0.000 -0.001
 -0.000  0.001  0.995  0.000 -0.001
  0.000 -0.000  0.000  0.995 -0.000
 -0.000 -0.001 -0.001 -0.000  0.995
 Atom:    2   Spin:  1
    eigenvalues and eigenvectors of the occupation matrix:
  0.031
  0.000  0.577  0.577 -0.000 -0.577
  0.122
  0.770 -0.022  0.136 -0.613  0.114
  0.122
 -0.613 -0.144  0.053 -0.770 -0.091
  0.987
  0.088  0.406 -0.803 -0.155 -0.398
  0.987
 -0.155  0.693  0.005 -0.088  0.698
    occupation matrix before diagonalization:
  0.149 -0.062 -0.062  0.000 -0.124
 -0.062  0.650 -0.309 -0.107  0.309
 -0.062 -0.309  0.650  0.107  0.309
  0.000 -0.107  0.107  0.149 -0.000
 -0.124  0.309  0.309 -0.000  0.650
 Atom:    3   Spin:  1
    eigenvalues and eigenvectors of the occupation matrix:
  0.793
 -0.577  0.577  0.577
  0.804
  0.707  0.707  0.000
  0.804
  0.408 -0.408  0.816
    occupation matrix before diagonalization:
  0.800  0.003  0.003
  0.003  0.800 -0.003
  0.003 -0.003  0.800
 Atom:    4   Spin:  1
    eigenvalues and eigenvectors of the occupation matrix:
  0.793
 -0.577  0.577  0.577
  0.804
 -0.665 -0.743  0.077
  0.804
  0.473 -0.339  0.813
    occupation matrix before diagonalization:
  0.800  0.003  0.003
  0.003  0.800 -0.003
  0.003 -0.003  0.800
 Atom:    1   Spin:  2
    eigenvalues and eigenvectors of the occupation matrix:
  0.031
  0.000  0.577  0.577 -0.000 -0.577
  0.122
  0.265 -0.102  0.141 -0.948  0.039
  0.122
 -0.948 -0.104 -0.036 -0.265 -0.141
  0.987
  0.105  0.325 -0.799 -0.144 -0.474
  0.987
 -0.144  0.735 -0.086 -0.105  0.649
    occupation matrix before diagonalization:
  0.149 -0.062 -0.062  0.000 -0.124
 -0.062  0.650 -0.309 -0.108  0.309
 -0.062 -0.309  0.650  0.108  0.309
  0.000 -0.108  0.108  0.149 -0.000
 -0.124  0.309  0.309 -0.000  0.650
 Atom:    2   Spin:  2
    eigenvalues and eigenvectors of the occupation matrix:
  0.995
  0.229 -0.086  0.717 -0.168  0.631
  0.995
  0.168  0.778 -0.314  0.229  0.464
  0.995
  0.742  0.037 -0.217 -0.607 -0.180
  0.995
  0.607 -0.229  0.082  0.742 -0.147
  0.996
  0.000 -0.577 -0.577 -0.000  0.577
    occupation matrix before diagonalization:
  0.995 -0.000 -0.000  0.000 -0.000
 -0.000  0.995  0.001 -0.000 -0.001
 -0.000  0.001  0.995  0.000 -0.001
  0.000 -0.000  0.000  0.995 -0.000
 -0.000 -0.001 -0.001 -0.000  0.995
 Atom:    3   Spin:  2
    eigenvalues and eigenvectors of the occupation matrix:
  0.793
 -0.577  0.577  0.577
  0.804
  0.707  0.707  0.000
  0.804
  0.408 -0.408  0.816
    occupation matrix before diagonalization:
  0.800  0.003  0.003
  0.003  0.800 -0.003
  0.003 -0.003  0.800
 Atom:    4   Spin:  2
    eigenvalues and eigenvectors of the occupation matrix:
  0.793
 -0.577  0.577  0.577
  0.804
  0.707  0.707  0.000
  0.804
  0.408 -0.408  0.816
    occupation matrix before diagonalization:
  0.800  0.003  0.003
  0.003  0.800 -0.003
  0.003 -0.003  0.800
atom    1   Tr[ns(na)]=   7.2245446
atom    1   Mag[ns(na)]=   2.7276727
atom    2   Tr[ns(na)]=   7.2247023
atom    2   Mag[ns(na)]=  -2.7274194
atom    3   Tr[ns(na)]=   4.8019364
atom    3   Mag[ns(na)]=   0.0001435
atom    4   Tr[ns(na)]=   4.8019364
atom    4   Mag[ns(na)]=   0.0001435
 --- exit write_nsg ---
 --- in v_hubbard_extended ---
Hubbard energy    0.1275
 -----------------------------

     total cpu time spent up to now is       22.1 secs

     total energy              =    -678.50204417 Ry
     estimated scf accuracy    <       0.00001747 Ry

     total magnetization       =     0.00 Bohr mag/cell
     absolute magnetization    =     5.63 Bohr mag/cell

     iteration # 12     ecut=    35.00 Ry     beta= 0.70
     Davidson diagonalization with overlap
     ethr =  3.80E-08,  avg # of iterations =  2.1
 --- enter write_nsg ---
 Atom:    1   Spin:  1
    eigenvalues and eigenvectors of the occupation matrix:
  0.995
  0.050  0.196 -0.783 -0.048 -0.587
  0.995
  0.048 -0.791  0.226  0.050 -0.565
  0.995
  0.997  0.030  0.026  0.042  0.056
  0.995
 -0.042  0.048 -0.050  0.997 -0.002
  0.996
  0.000 -0.577 -0.577 -0.000  0.577
    occupation matrix before diagonalization:
  0.995  0.000  0.000  0.000  0.000
  0.000  0.995  0.001  0.000 -0.001
  0.000  0.001  0.995 -0.000 -0.001
  0.000  0.000 -0.000  0.995 -0.000
  0.000 -0.001 -0.001 -0.000  0.995
 Atom:    2   Spin:  1
    eigenvalues and eigenvectors of the occupation matrix:
  0.031
  0.000  0.577  0.577 -0.000 -0.577
  0.121
  0.983  0.071  0.077 -0.024  0.149
  0.121
 -0.024 -0.130  0.127 -0.983 -0.004
  0.987
  0.100  0.358 -0.801 -0.152 -0.443
  0.987
 -0.152  0.719 -0.049 -0.100  0.669
    occupation matrix before diagonalization:
  0.150 -0.063 -0.063  0.000 -0.126
 -0.063  0.649 -0.309 -0.110  0.309
 -0.063 -0.309  0.649  0.110  0.309
  0.000 -0.110  0.110  0.150 -0.000
 -0.126  0.309  0.309 -0.000  0.649
 Atom:    3   Spin:  1
    eigenvalues and eigenvectors of the occupation matrix:
  0.794
 -0.577  0.577  0.577
  0.804
  0.707  0.707  0.000
  0.804
  0.408 -0.408  0.816
    occupation matrix before diagonalization:
  0.801  0.004  0.004
  0.004  0.801 -0.004
  0.004 -0.004  0.801
 Atom:    4   Spin:  1
    eigenvalues and eigenvectors of the occupation matrix:
  0.794
 -0.577  0.577  0.577
  0.804
 -0.678 -0.733  0.055
  0.804
  0.455 -0.359  0.815
    occupation matrix before diagonalization:
  0.801  0.004  0.004
  0.004  0.801 -0.004
  0.004 -0.004  0.801
 Atom:    1   Spin:  2
    eigenvalues and eigenvectors of the occupation matrix:
  0.031
  0.000  0.577  0.577 -0.000 -0.577
  0.121
  0.884  0.010  0.123 -0.431  0.134
  0.121
 -0.431 -0.148  0.083 -0.884 -0.065
  0.987
  0.101  0.356 -0.801 -0.152 -0.445
  0.987
 -0.152  0.720 -0.052 -0.101  0.668
    occupation matrix before diagonalization:
  0.150 -0.063 -0.063  0.000 -0.127
 -0.063  0.649 -0.309 -0.110  0.309
 -0.063 -0.309  0.649  0.110  0.309
  0.000 -0.110  0.110  0.150 -0.000
 -0.127  0.309  0.309 -0.000  0.649
 Atom:    2   Spin:  2
    eigenvalues and eigenvectors of the occupation matrix:
  0.995
  0.030  0.263 -0.800 -0.034 -0.537
  0.995
  0.034 -0.772  0.158  0.030 -0.614
  0.995
  0.900  0.003  0.030 -0.434  0.033
  0.995
  0.434  0.037 -0.021  0.900  0.016
  0.996
  0.000 -0.577 -0.577 -0.000  0.577
    occupation matrix before diagonalization:
  0.995  0.000  0.000  0.000  0.000
  0.000  0.995  0.001  0.000 -0.001
  0.000  0.001  0.995 -0.000 -0.001
  0.000  0.000 -0.000  0.995 -0.000
  0.000 -0.001 -0.001 -0.000  0.995
 Atom:    3   Spin:  2
    eigenvalues and eigenvectors of the occupation matrix:
  0.794
 -0.577  0.577  0.577
  0.804
 -0.660 -0.746  0.086
  0.804
  0.480 -0.332  0.812
    occupation matrix before diagonalization:
  0.800  0.003  0.003
  0.003  0.800 -0.003
  0.003 -0.003  0.800
 Atom:    4   Spin:  2
    eigenvalues and eigenvectors of the occupation matrix:
  0.794
 -0.577  0.577  0.577
  0.804
  0.707  0.707  0.000
  0.804
  0.408 -0.408  0.816
    occupation matrix before diagonalization:
  0.800  0.003  0.003
  0.003  0.800 -0.003
  0.003 -0.003  0.800
atom    1   Tr[ns(na)]=   7.2239797
atom    1   Mag[ns(na)]=   2.7280725
atom    2   Tr[ns(na)]=   7.2238558
atom    2   Mag[ns(na)]=  -2.7280928
atom    3   Tr[ns(na)]=   4.8030772
atom    3   Mag[ns(na)]=   0.0001180
atom    4   Tr[ns(na)]=   4.8030772
atom    4   Mag[ns(na)]=   0.0001180
 --- exit write_nsg ---
 --- in v_hubbard_extended ---
Hubbard energy    0.1285
 -----------------------------

     total cpu time spent up to now is       23.9 secs

     total energy              =    -678.50207256 Ry
     estimated scf accuracy    <       0.00000267 Ry

     total magnetization       =     0.00 Bohr mag/cell
     absolute magnetization    =     5.63 Bohr mag/cell

     iteration # 13     ecut=    35.00 Ry     beta= 0.70
     Davidson diagonalization with overlap
     ethr =  5.81E-09,  avg # of iterations =  2.0
 --- enter write_nsg ---
 Atom:    1   Spin:  1
    eigenvalues and eigenvectors of the occupation matrix:
  0.995
  0.022  0.200 -0.785 -0.021 -0.585
  0.995
  0.021 -0.791  0.222  0.022 -0.569
  0.995
  0.928  0.004  0.020 -0.370  0.023
  0.995
  0.370  0.025 -0.015  0.928  0.009
  0.996
  0.000 -0.577 -0.577 -0.000  0.577
    occupation matrix before diagonalization:
  0.995  0.000  0.000  0.000  0.000
  0.000  0.995  0.001  0.000 -0.001
  0.000  0.001  0.995 -0.000 -0.001
  0.000  0.000 -0.000  0.995 -0.000
  0.000 -0.001 -0.001 -0.000  0.995
 Atom:    2   Spin:  1
    eigenvalues and eigenvectors of the occupation matrix:
  0.031
  0.000  0.577  0.577 -0.000 -0.577
  0.122
 -0.707  0.036 -0.143  0.684 -0.107
  0.122
  0.684  0.144 -0.041  0.707  0.103
  0.987
 -0.095 -0.384  0.803  0.155  0.419
  0.987
  0.155 -0.705  0.020  0.095 -0.685
    occupation matrix before diagonalization:
  0.150 -0.063 -0.063  0.000 -0.126
 -0.063  0.649 -0.309 -0.109  0.309
 -0.063 -0.309  0.649  0.109  0.309
  0.000 -0.109  0.109  0.150 -0.000
 -0.126  0.309  0.309 -0.000  0.649
 Atom:    3   Spin:  1
    eigenvalues and eigenvectors of the occupation matrix:
  0.793
 -0.577  0.577  0.577
  0.804
  0.707  0.707  0.000
  0.804
  0.408 -0.408  0.816
    occupation matrix before diagonalization:
  0.800  0.004  0.004
  0.004  0.800 -0.004
  0.004 -0.004  0.800
 Atom:    4   Spin:  1
    eigenvalues and eigenvectors of the occupation matrix:
  0.793
 -0.577  0.577  0.577
  0.804
 -0.670 -0.739  0.070
  0.804
  0.467 -0.346  0.814
    occupation matrix before diagonalization:
  0.800  0.004  0.004
  0.004  0.800 -0.004
  0.004 -0.004  0.800
 Atom:    1   Spin:  2
    eigenvalues and eigenvectors of the occupation matrix:
  0.031
  0.000  0.577  0.577 -0.000 -0.577
  0.122
  0.110 -0.120  0.136 -0.977  0.017
  0.122
 -0.977 -0.088 -0.060 -0.110 -0.148
  0.987
  0.105  0.339 -0.800 -0.149 -0.461
  0.987
 -0.149  0.728 -0.070 -0.105  0.657
    occupation matrix before diagonalization:
  0.150 -0.063 -0.063  0.000 -0.127
 -0.063  0.649 -0.309 -0.110  0.309
 -0.063 -0.309  0.649  0.110  0.309
  0.000 -0.110  0.110  0.150 -0.000
 -0.127  0.309  0.309 -0.000  0.649
 Atom:    2   Spin:  2
    eigenvalues and eigenvectors of the occupation matrix:
  0.995
  0.018  0.273 -0.803 -0.021 -0.530
  0.995
  0.021 -0.769  0.148  0.018 -0.621
  0.995
  0.919  0.003  0.018 -0.394  0.020
  0.995
  0.394  0.022 -0.013  0.919  0.009
  0.996
  0.000 -0.577 -0.577 -0.000  0.577
    occupation matrix before diagonalization:
  0.995  0.000  0.000  0.000  0.000
  0.000  0.995  0.001  0.000 -0.001
  0.000  0.001  0.995 -0.000 -0.001
  0.000  0.000 -0.000  0.995 -0.000
  0.000 -0.001 -0.001 -0.000  0.995
 Atom:    3   Spin:  2
    eigenvalues and eigenvectors of the occupation matrix:
  0.793
 -0.577  0.577  0.577
  0.804
  0.707  0.707  0.000
  0.804
  0.408 -0.408  0.816
    occupation matrix before diagonalization:
  0.800  0.003  0.003
  0.003  0.800 -0.003
  0.003 -0.003  0.800
 Atom:    4   Spin:  2
    eigenvalues and eigenvectors of the occupation matrix:
  0.793
 -0.577  0.577  0.577
  0.804
  0.707  0.707  0.000
  0.804
  0.408 -0.408  0.816
    occupation matrix before diagonalization:
  0.800  0.003  0.003
  0.003  0.800 -0.003
  0.003 -0.003  0.800
atom    1   Tr[ns(na)]=   7.2244908
atom    1   Mag[ns(na)]=   2.7275805
atom    2   Tr[ns(na)]=   7.2244673
atom    2   Mag[ns(na)]=  -2.7275348
atom    3   Tr[ns(na)]=   4.8023694
atom    3   Mag[ns(na)]=   0.0000916
atom    4   Tr[ns(na)]=   4.8023694
atom    4   Mag[ns(na)]=   0.0000916
 --- exit write_nsg ---
 --- in v_hubbard_extended ---
Hubbard energy    0.1288
 -----------------------------

     total cpu time spent up to now is       25.7 secs

     total energy              =    -678.50207309 Ry
     estimated scf accuracy    <       0.00000093 Ry

     total magnetization       =     0.00 Bohr mag/cell
     absolute magnetization    =     5.63 Bohr mag/cell

     iteration # 14     ecut=    35.00 Ry     beta= 0.70
     Davidson diagonalization with overlap
     ethr =  2.02E-09,  avg # of iterations =  2.0
 --- enter write_nsg ---
 Atom:    1   Spin:  1
    eigenvalues and eigenvectors of the occupation matrix:
  0.995
  0.055  0.197 -0.783 -0.053 -0.586
  0.995
  0.053 -0.790  0.225  0.055 -0.565
  0.995
  0.931  0.010  0.048 -0.358  0.058
  0.995
  0.358  0.061 -0.039  0.931  0.022
  0.996
  0.000 -0.577 -0.577 -0.000  0.577
    occupation matrix before diagonalization:
  0.995  0.000  0.000  0.000  0.000
  0.000  0.995  0.001  0.000 -0.001
  0.000  0.001  0.995 -0.000 -0.001
  0.000  0.000 -0.000  0.995 -0.000
  0.000 -0.001 -0.001 -0.000  0.995
 Atom:    2   Spin:  1
    eigenvalues and eigenvectors of the occupation matrix:
  0.031
  0.000  0.577  0.577 -0.000 -0.577
  0.122
 -0.506  0.072 -0.149  0.843 -0.077
  0.122
  0.843  0.130 -0.003  0.506  0.128
  0.987
 -0.099 -0.364  0.802  0.153  0.438
  0.987
  0.153 -0.716  0.043  0.099 -0.673
    occupation matrix before diagonalization:
  0.150 -0.063 -0.063  0.000 -0.127
 -0.063  0.649 -0.309 -0.110  0.309
 -0.063 -0.309  0.649  0.110  0.309
  0.000 -0.110  0.110  0.150 -0.000
 -0.127  0.309  0.309 -0.000  0.649
 Atom:    3   Spin:  1
    eigenvalues and eigenvectors of the occupation matrix:
  0.793
 -0.577  0.577  0.577
  0.804
 -0.632 -0.764  0.132
  0.804
  0.517 -0.288  0.806
    occupation matrix before diagonalization:
  0.800  0.004  0.004
  0.004  0.800 -0.004
  0.004 -0.004  0.800
 Atom:    4   Spin:  1
    eigenvalues and eigenvectors of the occupation matrix:
  0.793
 -0.577  0.577  0.577
  0.804
 -0.660 -0.747  0.087
  0.804
  0.481 -0.331  0.812
    occupation matrix before diagonalization:
  0.800  0.004  0.004
  0.004  0.800 -0.004
  0.004 -0.004  0.800
 Atom:    1   Spin:  2
    eigenvalues and eigenvectors of the occupation matrix:
  0.031
  0.000  0.577  0.577 -0.000 -0.577
  0.122
  0.980  0.065  0.084 -0.074  0.149
  0.122
 -0.074 -0.134  0.123 -0.980 -0.011
  0.987
 -0.071 -0.485  0.796  0.168  0.311
  0.987
  0.168 -0.639 -0.101  0.071 -0.740
    occupation matrix before diagonalization:
  0.150 -0.063 -0.063  0.000 -0.127
 -0.063  0.649 -0.309 -0.110  0.309
 -0.063 -0.309  0.649  0.110  0.309
  0.000 -0.110  0.110  0.150 -0.000
 -0.127  0.309  0.309 -0.000  0.649
 Atom:    2   Spin:  2
    eigenvalues and eigenvectors of the occupation matrix:
  0.995
  0.049  0.327 -0.809 -0.067 -0.482
  0.995
  0.067 -0.745  0.090  0.049 -0.656
  0.995
  0.954  0.016  0.049 -0.286  0.065
  0.995
  0.286  0.066 -0.046  0.954  0.019
  0.996
  0.000 -0.577 -0.577 -0.000  0.577
    occupation matrix before diagonalization:
  0.995  0.000  0.000  0.000  0.000
  0.000  0.995  0.001  0.000 -0.001
  0.000  0.001  0.995 -0.000 -0.001
  0.000  0.000 -0.000  0.995 -0.000
  0.000 -0.001 -0.001 -0.000  0.995
 Atom:    3   Spin:  2
    eigenvalues and eigenvectors of the occupation matrix:
  0.793
 -0.577  0.577  0.577
  0.804
 -0.774 -0.612 -0.162
  0.804
  0.260 -0.540  0.800
    occupation matrix before diagonalization:
  0.800  0.004  0.004
  0.004  0.800 -0.004
  0.004 -0.004  0.800
 Atom:    4   Spin:  2
    eigenvalues and eigenvectors of the occupation matrix:
  0.793
 -0.577  0.577  0.577
  0.804
 -0.647 -0.755  0.107
  0.804
  0.497 -0.312  0.809
    occupation matrix before diagonalization:
  0.800  0.004  0.004
  0.004  0.800 -0.004
  0.004 -0.004  0.800
atom    1   Tr[ns(na)]=   7.2244016
atom    1   Mag[ns(na)]=   2.7276035
atom    2   Tr[ns(na)]=   7.2244418
atom    2   Mag[ns(na)]=  -2.7275473
atom    3   Tr[ns(na)]=   4.8025929
atom    3   Mag[ns(na)]=   0.0000331
atom    4   Tr[ns(na)]=   4.8025929
atom    4   Mag[ns(na)]=   0.0000331
 --- exit write_nsg ---
 --- in v_hubbard_extended ---
Hubbard energy    0.1287
 -----------------------------

     total cpu time spent up to now is       27.4 secs

     total energy              =    -678.50207359 Ry
     estimated scf accuracy    <       0.00000001 Ry

     total magnetization       =     0.00 Bohr mag/cell
     absolute magnetization    =     5.63 Bohr mag/cell

     iteration # 15     ecut=    35.00 Ry     beta= 0.70
     Davidson diagonalization with overlap
     ethr =  2.90E-11,  avg # of iterations =  2.2
 --- enter write_nsg ---
 Atom:    1   Spin:  1
    eigenvalues and eigenvectors of the occupation matrix:
  0.995
  0.057  0.225 -0.790 -0.059 -0.565
  0.995
  0.059 -0.782  0.197  0.057 -0.586
  0.995
  0.994  0.029  0.037 -0.072  0.066
  0.995
  0.072  0.060 -0.055  0.994  0.005
  0.996
  0.000 -0.577 -0.577 -0.000  0.577
    occupation matrix before diagonalization:
  0.995  0.000  0.000  0.000  0.000
  0.000  0.995  0.001  0.000 -0.001
  0.000  0.001  0.995 -0.000 -0.001
  0.000  0.000 -0.000  0.995 -0.000
  0.000 -0.001 -0.001 -0.000  0.995
 Atom:    2   Spin:  1
    eigenvalues and eigenvectors of the occupation matrix:
  0.031
  0.000  0.577  0.577 -0.000 -0.577
  0.122
  0.397 -0.088  0.148 -0.899  0.060
  0.122
  0.899  0.120  0.016  0.397  0.136
  0.987
  0.123  0.241 -0.784 -0.134 -0.542
  0.987
 -0.134  0.766 -0.174 -0.123  0.592
    occupation matrix before diagonalization:
  0.150 -0.063 -0.063  0.000 -0.127
 -0.063  0.649 -0.309 -0.110  0.309
 -0.063 -0.309  0.649  0.110  0.309
  0.000 -0.110  0.110  0.150 -0.000
 -0.127  0.309  0.309 -0.000  0.649
 Atom:    3   Spin:  1
    eigenvalues and eigenvectors of the occupation matrix:
  0.793
 -0.577  0.577  0.577
  0.804
 -0.728 -0.685 -0.043
  0.804
  0.371 -0.445  0.815
    occupation matrix before diagonalization:
  0.800  0.004  0.004
  0.004  0.800 -0.004
  0.004 -0.004  0.800
 Atom:    4   Spin:  1
    eigenvalues and eigenvectors of the occupation matrix:
  0.793
 -0.577  0.577  0.577
  0.804
  0.707  0.707  0.000
  0.804
  0.408 -0.408  0.816
    occupation matrix before diagonalization:
  0.800  0.004  0.004
  0.004  0.800 -0.004
  0.004 -0.004  0.800
 Atom:    1   Spin:  2
    eigenvalues and eigenvectors of the occupation matrix:
  0.031
  0.000  0.577  0.577 -0.000 -0.577
  0.122
 -0.007 -0.130  0.129 -0.983 -0.001
  0.122
  0.983  0.074  0.075 -0.007  0.149
  0.987
 -0.075 -0.467  0.799  0.166  0.331
  0.987
  0.166 -0.653 -0.078  0.075 -0.731
    occupation matrix before diagonalization:
  0.150 -0.063 -0.063  0.000 -0.127
 -0.063  0.649 -0.309 -0.110  0.309
 -0.063 -0.309  0.649  0.110  0.309
  0.000 -0.110  0.110  0.150 -0.000
 -0.127  0.309  0.309 -0.000  0.649
 Atom:    2   Spin:  2
    eigenvalues and eigenvectors of the occupation matrix:
  0.995
  0.057  0.241 -0.793 -0.062 -0.553
  0.995
  0.062 -0.777  0.180  0.057 -0.597
  0.995
  0.940  0.013  0.052 -0.329  0.065
  0.995
  0.329  0.068 -0.045  0.940  0.023
  0.996
  0.000 -0.577 -0.577 -0.000  0.577
    occupation matrix before diagonalization:
  0.995  0.000  0.000  0.000  0.000
  0.000  0.995  0.001  0.000 -0.001
[...]
  0.987
  0.103  0.347 -0.800 -0.151 -0.453
  0.987
 -0.151  0.724 -0.061 -0.103  0.663
    occupation matrix before diagonalization:
  0.150 -0.063 -0.063  0.000 -0.127
 -0.063  0.649 -0.309 -0.110  0.309
 -0.063 -0.309  0.649  0.110  0.309
  0.000 -0.110  0.110  0.150 -0.000
 -0.127  0.309  0.309 -0.000  0.649
 Atom:    3   Spin:  1
    eigenvalues and eigenvectors of the occupation matrix:
  0.793
 -0.577  0.577  0.577
  0.804
  0.707  0.707  0.000
  0.804
  0.408 -0.408  0.816
    occupation matrix before diagonalization:
  0.800  0.004  0.004
  0.004  0.800 -0.004
  0.004 -0.004  0.800
 Atom:    4   Spin:  1
    eigenvalues and eigenvectors of the occupation matrix:
  0.793
 -0.577  0.577  0.577
  0.804
 -0.673 -0.737  0.065
  0.804
  0.463 -0.351  0.814
    occupation matrix before diagonalization:
  0.800  0.004  0.004
  0.004  0.800 -0.004
  0.004 -0.004  0.800
 Atom:    1   Spin:  2
    eigenvalues and eigenvectors of the occupation matrix:
  0.031
  0.000  0.577  0.577 -0.000 -0.577
  0.122
  0.983  0.076  0.073  0.012  0.149
  0.122
  0.012 -0.128  0.130 -0.983  0.002
  0.987
  0.092  0.400 -0.803 -0.158 -0.403
  0.987
 -0.158  0.696 -0.001 -0.092  0.695
    occupation matrix before diagonalization:
  0.150 -0.063 -0.063  0.000 -0.127
 -0.063  0.649 -0.309 -0.110  0.309
 -0.063 -0.309  0.649  0.110  0.309
  0.000 -0.110  0.110  0.150 -0.000
 -0.127  0.309  0.309 -0.000  0.649
 Atom:    2   Spin:  2
    eigenvalues and eigenvectors of the occupation matrix:
  0.995
  0.048  0.343 -0.810 -0.069 -0.467
  0.995
  0.069 -0.738  0.071  0.048 -0.666
  0.995
  0.984  0.024  0.043 -0.158  0.068
  0.995
  0.158  0.064 -0.053  0.984  0.011
  0.996
  0.000 -0.577 -0.577 -0.000  0.577
    occupation matrix before diagonalization:
  0.995  0.000  0.000  0.000  0.000
  0.000  0.995  0.001  0.000 -0.001
  0.000  0.001  0.995 -0.000 -0.001
  0.000  0.000 -0.000  0.995 -0.000
  0.000 -0.001 -0.001 -0.000  0.995
 Atom:    3   Spin:  2
    eigenvalues and eigenvectors of the occupation matrix:
  0.793
 -0.577  0.577  0.577
  0.804
 -0.770 -0.620 -0.150
  0.804
  0.272 -0.531  0.803
    occupation matrix before diagonalization:
  0.800  0.004  0.004
  0.004  0.800 -0.004
  0.004 -0.004  0.800
 Atom:    4   Spin:  2
    eigenvalues and eigenvectors of the occupation matrix:
  0.793
 -0.577  0.577  0.577
  0.804
 -0.765 -0.630 -0.135
  0.804
  0.286 -0.520  0.805
    occupation matrix before diagonalization:
  0.800  0.004  0.004
  0.004  0.800 -0.004
  0.004 -0.004  0.800
atom    1   Tr[ns(na)]=   7.2244077
atom    1   Mag[ns(na)]=   2.7275913
atom    2   Tr[ns(na)]=   7.2244077
atom    2   Mag[ns(na)]=  -2.7275835
atom    3   Tr[ns(na)]=   4.8026178
atom    3   Mag[ns(na)]=   0.0000133
atom    4   Tr[ns(na)]=   4.8026178
atom    4   Mag[ns(na)]=   0.0000133
 --- exit write_nsg ---
 --- in v_hubbard_extended ---
Hubbard energy    0.1287
 -----------------------------

     total cpu time spent up to now is       34.3 secs

     total energy              =    -678.50207361 Ry
     estimated scf accuracy    <          1.2E-10 Ry

     total magnetization       =     0.00 Bohr mag/cell
     absolute magnetization    =     5.63 Bohr mag/cell

     iteration # 19     ecut=    35.00 Ry     beta= 0.70
     Davidson diagonalization with overlap
     ethr =  2.61E-13,  avg # of iterations =  2.1
 --- enter write_nsg ---
 Atom:    1   Spin:  1
    eigenvalues and eigenvectors of the occupation matrix:
  0.995
  0.065  0.127 -0.760 -0.052 -0.632
  0.995
  0.052 -0.804  0.292  0.065 -0.512
  0.995
  0.951  0.015  0.050 -0.299  0.065
  0.995
  0.299  0.066 -0.046  0.951  0.020
  0.996
  0.000 -0.577 -0.577 -0.000  0.577
    occupation matrix before diagonalization:
  0.995  0.000  0.000  0.000  0.000
  0.000  0.995  0.001  0.000 -0.001
  0.000  0.001  0.995 -0.000 -0.001
  0.000  0.000 -0.000  0.995 -0.000
  0.000 -0.001 -0.001 -0.000  0.995
 Atom:    2   Spin:  1
    eigenvalues and eigenvectors of the occupation matrix:
  0.031
  0.000  0.577  0.577 -0.000 -0.577
  0.122
 -0.612  0.055 -0.147  0.769 -0.093
  0.122
  0.769  0.139 -0.022  0.612  0.117
  0.987
  0.119  0.268 -0.789 -0.139 -0.522
  0.987
 -0.139  0.757 -0.147 -0.119  0.610
    occupation matrix before diagonalization:
  0.150 -0.063 -0.063  0.000 -0.127
 -0.063  0.649 -0.309 -0.110  0.309
 -0.063 -0.309  0.649  0.110  0.309
  0.000 -0.110  0.110  0.150 -0.000
 -0.127  0.309  0.309 -0.000  0.649
 Atom:    3   Spin:  1
    eigenvalues and eigenvectors of the occupation matrix:
  0.793
 -0.577  0.577  0.577
  0.804
  0.707  0.707  0.000
  0.804
  0.408 -0.408  0.816
    occupation matrix before diagonalization:
  0.800  0.004  0.004
  0.004  0.800 -0.004
  0.004 -0.004  0.800
 Atom:    4   Spin:  1
    eigenvalues and eigenvectors of the occupation matrix:
  0.793
 -0.577  0.577  0.577
  0.804
 -0.739 -0.671 -0.068
  0.804
  0.348 -0.466  0.814
    occupation matrix before diagonalization:
  0.800  0.004  0.004
  0.004  0.800 -0.004
  0.004 -0.004  0.800
 Atom:    1   Spin:  2
    eigenvalues and eigenvectors of the occupation matrix:
  0.031
  0.000  0.577  0.577 -0.000 -0.577
  0.122
 -0.547  0.066 -0.149  0.817 -0.083
  0.122
  0.817  0.134 -0.010  0.547  0.124
  0.987
  0.132  0.188 -0.770 -0.126 -0.582
  0.987
 -0.126  0.781 -0.228 -0.132  0.553
    occupation matrix before diagonalization:
  0.150 -0.063 -0.063  0.000 -0.127
 -0.063  0.649 -0.309 -0.110  0.309
 -0.063 -0.309  0.649  0.110  0.309
  0.000 -0.110  0.110  0.150 -0.000
 -0.127  0.309  0.309 -0.000  0.649
 Atom:    2   Spin:  2
    eigenvalues and eigenvectors of the occupation matrix:
  0.995
  0.061  0.187 -0.779 -0.057 -0.593
  0.995
  0.057 -0.792  0.234  0.061 -0.558
  0.995
  0.976  0.021  0.045 -0.203  0.066
  0.995
  0.203  0.064 -0.051  0.976  0.014
  0.996
  0.000 -0.577 -0.577 -0.000  0.577
    occupation matrix before diagonalization:
  0.995  0.000  0.000  0.000  0.000
  0.000  0.995  0.001  0.000 -0.001
  0.000  0.001  0.995 -0.000 -0.001
  0.000  0.000 -0.000  0.995 -0.000
  0.000 -0.001 -0.001 -0.000  0.995
 Atom:    3   Spin:  2
    eigenvalues and eigenvectors of the occupation matrix:
  0.793
 -0.577  0.577  0.577
  0.804
  0.707  0.707  0.000
  0.804
  0.408 -0.408  0.816
    occupation matrix before diagonalization:
  0.800  0.004  0.004
  0.004  0.800 -0.004
  0.004 -0.004  0.800
 Atom:    4   Spin:  2
    eigenvalues and eigenvectors of the occupation matrix:
  0.793
 -0.577  0.577  0.577
  0.804
  0.707  0.707  0.000
  0.804
  0.408 -0.408  0.816
    occupation matrix before diagonalization:
  0.800  0.004  0.004
  0.004  0.800 -0.004
  0.004 -0.004  0.800
atom    1   Tr[ns(na)]=   7.2244075
atom    1   Mag[ns(na)]=   2.7275889
atom    2   Tr[ns(na)]=   7.2244060
atom    2   Mag[ns(na)]=  -2.7275875
atom    3   Tr[ns(na)]=   4.8026165
atom    3   Mag[ns(na)]=   0.0000051
atom    4   Tr[ns(na)]=   4.8026165
atom    4   Mag[ns(na)]=   0.0000051
 --- exit write_nsg ---
 --- in v_hubbard_extended ---
Hubbard energy    0.1287
 -----------------------------
 
     Magnetic moment per site:
     atom:    1    charge:   14.5850    magn:    2.6113    constr:    0.0000
     atom:    2    charge:   14.5850    magn:   -2.6113    constr:    0.0000
     atom:    3    charge:    5.7920    magn:    0.0000    constr:    0.0000
     atom:    4    charge:    5.7920    magn:    0.0000    constr:    0.0000

     total cpu time spent up to now is       36.2 secs

     End of self-consistent calculation

 ------ SPIN UP ------------


          k = 0.0000 0.0000 0.0000 (   923 PWs)   bands (ev):

   -83.3984 -79.8380 -47.3564 -46.4865 -46.4865 -43.5612 -43.2354 -43.2354
    -6.0613  -4.7189   4.8220   6.0125   6.0125   7.4577   7.4577   7.9407
     9.7282   9.7282  11.0512  11.0512  11.0819  11.2030  11.2030  14.7718
    16.5622  17.4614  17.4614  18.5069

     occupation numbers 
     1.0000   1.0000   1.0000   1.0000   1.0000   1.0000   1.0000   1.0000
     1.0000   1.0000   1.0000   1.0000   1.0000   1.0000   1.0000   1.0000
     1.0000   1.0000   1.0000   1.0000   1.0000   1.0000   1.0000   0.0000
     0.0000   0.0000   0.0000   0.0000

          k = 0.4959-0.1649-0.1649 (   913 PWs)   bands (ev):

   -83.3970 -79.8359 -47.3541 -46.5072 -46.4920 -43.5581 -43.2605 -43.2419
    -5.2123  -4.6663   5.5332   6.1465   6.2481   6.3855   7.6947   7.7467
     8.2473   9.2191   9.3129  10.4890  10.9015  11.1356  11.6670  16.6978
    16.9218  17.3359  19.2651  21.9395

     occupation numbers 
     1.0000   1.0000   1.0000   1.0000   1.0000   1.0000   1.0000   1.0000
     1.0000   1.0000   1.0000   1.0000   1.0000   1.0000   1.0000   1.0000
     1.0000   1.0000   1.0000   1.0000   1.0000   1.0000   1.0296   0.0000
     0.0000   0.0000   0.0000   0.0000

          k = 0.3311 0.3311-0.3297 (   921 PWs)   bands (ev):

   -83.3972 -79.8360 -47.3541 -46.5073 -46.4923 -43.5580 -43.2604 -43.2421
    -5.1102  -4.7811   5.6889   5.9965   6.1149   6.2819   7.6750   7.6997
     8.4893   9.2930   9.6910  10.0635  10.3247  11.6275  12.0579  16.6597
    17.3600  17.4384  18.3392  20.4774

     occupation numbers 
     1.0000   1.0000   1.0000   1.0000   1.0000   1.0000   1.0000   1.0000
     1.0000   1.0000   1.0000   1.0000   1.0000   1.0000   1.0000   1.0000
     1.0000   1.0000   1.0000   1.0000   1.0000   1.0201   0.8986   0.0000
     0.0000   0.0000   0.0000   0.0000

          k =-0.6608 0.6608 0.0000 (   908 PWs)   bands (ev):

   -83.3963 -79.8349 -47.3526 -46.5062 -46.5061 -43.5562 -43.2590 -43.2589
    -4.6795  -4.6789   5.7864   5.9229   6.1236   6.7887   6.8296   7.5386
     7.7410   9.2151   9.5692  10.6528  10.8986  11.0530  11.2090  16.7411
    17.2468  17.3726  21.9603  22.3964

     occupation numbers 
     1.0000   1.0000   1.0000   1.0000   1.0000   1.0000   1.0000   1.0000
     1.0000   1.0000   1.0000   1.0000   1.0000   1.0000   1.0000   1.0000
     1.0000   1.0000   1.0000   1.0000   1.0000   1.0000   1.0000   0.0000
     0.0000   0.0000   0.0000   0.0000

          k = 0.1662 0.1662 0.1662 (   939 PWs)   bands (ev):

   -83.3985 -79.8378 -47.3568 -46.4868 -46.4868 -43.5617 -43.2357 -43.2357
    -5.7665  -5.1019   5.3328   6.0703   6.0703   7.5014   7.5014   8.0540
     9.5646   9.5646   9.6793  10.4054  10.4054  11.9713  11.9713  16.1007
    16.5963  17.3267  17.3267  18.3460

     occupation numbers 
     1.0000   1.0000   1.0000   1.0000   1.0000   1.0000   1.0000   1.0000
     1.0000   1.0000   1.0000   1.0000   1.0000   1.0000   1.0000   1.0000
     1.0000   1.0000   1.0000   1.0000   1.0000   1.0340   1.0340   0.0000
     0.0000   0.0000   0.0000   0.0000

          k =-0.8257 0.4959 0.4959 (   898 PWs)   bands (ev):

   -83.3970 -79.8359 -47.3537 -46.5069 -46.4916 -43.5578 -43.2602 -43.2416
    -5.0582  -4.8248   5.4755   5.9412   6.1210   6.3021   7.7545   7.8538
     8.3789   9.3499  10.1268  10.5711  10.6518  10.6761  11.6649  16.6050
    16.8088  17.5227  19.8779  20.0689

     occupation numbers 
     1.0000   1.0000   1.0000   1.0000   1.0000   1.0000   1.0000   1.0000
     1.0000   1.0000   1.0000   1.0000   1.0000   1.0000   1.0000   1.0000
     1.0000   1.0000   1.0000   1.0000   1.0000   1.0000   1.0291   0.0000
     0.0000   0.0000   0.0000   0.0000

 ------ SPIN DOWN ----------


          k = 0.0000 0.0000 0.0000 (   923 PWs)   bands (ev):

   -83.3984 -79.8380 -47.3564 -46.4865 -46.4865 -43.5612 -43.2355 -43.2355
    -6.0613  -4.7189   4.8220   6.0125   6.0125   7.4577   7.4577   7.9408
     9.7282   9.7282  11.0512  11.0512  11.0819  11.2030  11.2030  14.7719
    16.5622  17.4613  17.4613  18.5069

     occupation numbers 
     1.0000   1.0000   1.0000   1.0000   1.0000   1.0000   1.0000   1.0000
     1.0000   1.0000   1.0000   1.0000   1.0000   1.0000   1.0000   1.0000
     1.0000   1.0000   1.0000   1.0000   1.0000   1.0000   1.0000   0.0000
     0.0000   0.0000   0.0000   0.0000

          k = 0.4959-0.1649-0.1649 (   913 PWs)   bands (ev):

   -83.3970 -79.8359 -47.3541 -46.5071 -46.4919 -43.5581 -43.2606 -43.2420
    -5.2123  -4.6663   5.5332   6.1465   6.2482   6.3855   7.6947   7.7467
     8.2474   9.2191   9.3129  10.4890  10.9016  11.1356  11.6670  16.6978
    16.9218  17.3359  19.2651  21.9395

     occupation numbers 
     1.0000   1.0000   1.0000   1.0000   1.0000   1.0000   1.0000   1.0000
     1.0000   1.0000   1.0000   1.0000   1.0000   1.0000   1.0000   1.0000
     1.0000   1.0000   1.0000   1.0000   1.0000   1.0000   1.0296   0.0000
     0.0000   0.0000   0.0000   0.0000

          k = 0.3311 0.3311-0.3297 (   921 PWs)   bands (ev):

   -83.3971 -79.8361 -47.3541 -46.5072 -46.4922 -43.5580 -43.2605 -43.2422
    -5.1102  -4.7811   5.6889   5.9965   6.1150   6.2819   7.6750   7.6998
     8.4893   9.2930   9.6909  10.0635  10.3247  11.6275  12.0579  16.6597
    17.3599  17.4384  18.3392  20.4774

     occupation numbers 
     1.0000   1.0000   1.0000   1.0000   1.0000   1.0000   1.0000   1.0000
     1.0000   1.0000   1.0000   1.0000   1.0000   1.0000   1.0000   1.0000
     1.0000   1.0000   1.0000   1.0000   1.0000   1.0201   0.8985   0.0000
     0.0000   0.0000   0.0000   0.0000

          k =-0.6608 0.6608 0.0000 (   908 PWs)   bands (ev):

   -83.3963 -79.8349 -47.3526 -46.5061 -46.5060 -43.5562 -43.2590 -43.2589
    -4.6795  -4.6789   5.7864   5.9229   6.1236   6.7887   6.8297   7.5386
     7.7410   9.2152   9.5692  10.6528  10.8985  11.0530  11.2090  16.7411
    17.2468  17.3726  21.9603  22.1947

     occupation numbers 
     1.0000   1.0000   1.0000   1.0000   1.0000   1.0000   1.0000   1.0000
     1.0000   1.0000   1.0000   1.0000   1.0000   1.0000   1.0000   1.0000
     1.0000   1.0000   1.0000   1.0000   1.0000   1.0000   1.0000   0.0000
     0.0000   0.0000   0.0000   0.0000

          k = 0.1662 0.1662 0.1662 (   939 PWs)   bands (ev):

   -83.3985 -79.8379 -47.3568 -46.4868 -46.4868 -43.5617 -43.2358 -43.2358
    -5.7665  -5.1019   5.3328   6.0703   6.0703   7.5014   7.5014   8.0540
     9.5646   9.5646   9.6793  10.4054  10.4054  11.9713  11.9713  16.1007
    16.5963  17.3267  17.3267  18.3460

     occupation numbers 
     1.0000   1.0000   1.0000   1.0000   1.0000   1.0000   1.0000   1.0000
     1.0000   1.0000   1.0000   1.0000   1.0000   1.0000   1.0000   1.0000
     1.0000   1.0000   1.0000   1.0000   1.0000   1.0340   1.0340   0.0000
     0.0000   0.0000   0.0000   0.0000

          k =-0.8257 0.4959 0.4959 (   898 PWs)   bands (ev):

   -83.3970 -79.8359 -47.3538 -46.5069 -46.4915 -43.5578 -43.2602 -43.2416
    -5.0582  -4.8248   5.4756   5.9412   6.1210   6.3021   7.7546   7.8539
     8.3789   9.3498  10.1268  10.5711  10.6518  10.6761  11.6650  16.6050
    16.8088  17.5227  19.8779  20.0689

     occupation numbers 
     1.0000   1.0000   1.0000   1.0000   1.0000   1.0000   1.0000   1.0000
     1.0000   1.0000   1.0000   1.0000   1.0000   1.0000   1.0000   1.0000
     1.0000   1.0000   1.0000   1.0000   1.0000   1.0000   1.0291   0.0000
     0.0000   0.0000   0.0000   0.0000

     the Fermi energy is    12.2501 ev

!    total energy              =    -678.50207361 Ry
     estimated scf accuracy    <          2.5E-11 Ry
     smearing contrib. (-TS)   =       0.00242319 Ry
     internal energy E=F+TS    =    -678.50449680 Ry

     The total energy is F=E-TS. E is the sum of the following terms:
     one-electron contribution =    -364.71949306 Ry
     hartree contribution      =     209.00774295 Ry
     xc contribution           =     -79.51964176 Ry
     ewald contribution        =    -425.18714290 Ry
     Hubbard energy            =       0.12873920 Ry
     one-center paw contrib.   =     -18.21470124 Ry
      -> PAW hartree energy AE =      54.87655677 Ry
      -> PAW hartree energy PS =     -54.63936657 Ry
      -> PAW xc energy AE      =     -32.77058311 Ry
      -> PAW xc energy PS      =      14.31869167 Ry
      -> total E_H with PAW    =     209.24493315 Ry
      -> total E_XC with PAW   =     -97.97153320 Ry

     total magnetization       =     0.00 Bohr mag/cell
     absolute magnetization    =     5.63 Bohr mag/cell

     convergence has been achieved in  19 iterations

     Writing output data file ./tmp/CoO.save/
 
     init_run     :      1.45s CPU      1.53s WALL (       1 calls)
     electrons    :     33.02s CPU     34.49s WALL (       1 calls)

     Called by init_run:
     wfcinit      :      0.53s CPU      0.53s WALL (       1 calls)
     wfcinit:atom :      0.00s CPU      0.00s WALL (      12 calls)
     wfcinit:wfcr :      0.48s CPU      0.48s WALL (      12 calls)
     potinit      :      0.28s CPU      0.29s WALL (       1 calls)
     hinit0       :      0.57s CPU      0.59s WALL (       1 calls)

     Called by electrons:
     c_bands      :     20.42s CPU     20.46s WALL (      19 calls)
     sum_band     :      6.45s CPU      7.03s WALL (      19 calls)
     v_of_rho     :      2.44s CPU      2.56s WALL (      20 calls)
     v_h          :      0.03s CPU      0.04s WALL (      20 calls)
     v_xc         :      2.41s CPU      2.52s WALL (      20 calls)
     newd         :      1.32s CPU      2.10s WALL (      20 calls)
     PAW_pot      :      2.40s CPU      2.41s WALL (      20 calls)
     mix_rho      :      0.16s CPU      0.16s WALL (      19 calls)

     Called by c_bands:
     init_us_2    :      0.20s CPU      0.20s WALL (     480 calls)
     cegterg      :     19.79s CPU     19.83s WALL (     228 calls)

     Called by sum_band:
     sum_band:wei :      0.01s CPU      0.01s WALL (      19 calls)
     sum_band:loo :      3.64s CPU      3.65s WALL (      19 calls)
     sum_band:buf :      0.01s CPU      0.01s WALL (     228 calls)
     sum_band:ini :      0.09s CPU      0.10s WALL (     228 calls)
     sum_band:cal :      0.06s CPU      0.06s WALL (     228 calls)
     sum_band:bec :      0.00s CPU      0.00s WALL (     228 calls)
     addusdens    :      2.58s CPU      3.16s WALL (      19 calls)
     addusd:skk   :      0.00s CPU      0.00s WALL (      57 calls)
     addusd:dgemm :      0.56s CPU      1.05s WALL (     114 calls)
     addusd:qvan2 :      1.95s CPU      1.95s WALL (     114 calls)

     Called by *egterg:
     cdiaghg      :      0.52s CPU      0.52s WALL (     769 calls)
     cegterg:over :      0.22s CPU      0.22s WALL (     541 calls)
     cegterg:upda :      0.12s CPU      0.12s WALL (     541 calls)
     cegterg:last :      0.26s CPU      0.26s WALL (     466 calls)
     h_psi        :     18.77s CPU     18.80s WALL (     781 calls)
     s_psi        :      0.17s CPU      0.17s WALL (     793 calls)
     g_psi        :      0.06s CPU      0.06s WALL (     541 calls)

     Called by h_psi:
     h_psi:calbec :      0.17s CPU      0.17s WALL (     781 calls)
     vloc_psi     :     16.76s CPU     16.79s WALL (     781 calls)
     add_vuspsi   :      0.17s CPU      0.17s WALL (     781 calls)
     vhpsi        :      1.65s CPU      1.65s WALL (     781 calls)

     General routines
     calbec       :      0.32s CPU      0.32s WALL (    2030 calls)
     fft          :      0.62s CPU      0.64s WALL (     494 calls)
     ffts         :      0.04s CPU      0.04s WALL (      78 calls)
     fftw         :     17.77s CPU     17.81s WALL (   39502 calls)
     interpolate  :      0.08s CPU      0.08s WALL (      40 calls)
     davcio       :      0.00s CPU      0.00s WALL (      12 calls)
 
     Parallel routines

     Hubbard U routines
     new_nsg      :      0.10s CPU      0.10s WALL (      19 calls)
     alloc_neigh  :      0.00s CPU      0.00s WALL (       1 calls)
     vhpsi        :      1.65s CPU      1.65s WALL (     781 calls)

     PAW routines
     PAW_pot      :      2.40s CPU      2.41s WALL (      20 calls)
     PAW_symme    :      0.00s CPU      0.00s WALL (      39 calls)
 
     PWSCF        :     34.63s CPU     36.21s WALL

 
   This run was terminated on:  14:45:44   7Jun2021            

=------------------------------------------------------------------------------=
   JOB DONE.
=------------------------------------------------------------------------------=
