
     Program PROJWFC v.6.7MaX starts on  7Jun2021 at 14:47:32 

     This program is part of the open-source Quantum ESPRESSO suite
     for quantum simulation of materials; please cite
         "P. Giannozzi et al., J. Phys.:Condens. Matter 21 395502 (2009);
         "P. Giannozzi et al., J. Phys.:Condens. Matter 29 465901 (2017);
          URL http://www.quantum-espresso.org", 
     in publications or presentations arising from this work. More details at
     http://www.quantum-espresso.org/quote

     Parallel version (MPI), running on     1 processors

     MPI processes distributed on     1 nodes

     Reading xml data from directory:

     ./tmp/CoO.save/
     Message from routine volume:
     axis vectors are left-handed
     file O.pbesol-n-kjpaw_psl.0.1.UPF: wavefunction(s)  2P renormalized

     IMPORTANT: XC functional enforced from input :
     Exchange-correlation= PBESOL
                           (   1   4  10   8   0   0   0)
     Any further DFT definition will be discarded
     Please, verify this is what you really want

     First shells distances (in Bohr):
     shell:   1    0.000000
     shell:   2    4.027403
     shell:   3    5.684134
     shell:   4    5.707060
     shell:   5    6.947532
     shell:   6    6.985020
     shell:   7    8.054807

     i    j  dist (Bohr)       stan-stan stan-bac bac-bac bac-stan
     1    1   0.00000000  V =    6.6421   0.0000   0.0000   0.0000
     1   12   4.02740329  V =    0.4917   0.0000   0.0000   0.0000
     1   20   4.02740329  V =    0.4917   0.0000   0.0000   0.0000
     1   23   4.02740329  V =    0.4917   0.0000   0.0000   0.0000
     1   44   4.02740329  V =    0.4917   0.0000   0.0000   0.0000
     1   47   4.02740329  V =    0.4917   0.0000   0.0000   0.0000
     1   55   4.02740329  V =    0.4917   0.0000   0.0000   0.0000
     2    2   0.00000000  V =    6.6421   0.0000   0.0000   0.0000
     2   24   4.02740329  V =    0.4917   0.0000   0.0000   0.0000
     2   48   4.02740329  V =    0.4917   0.0000   0.0000   0.0000
     2   56   4.02740329  V =    0.4917   0.0000   0.0000   0.0000
     2   59   4.02740329  V =    0.4917   0.0000   0.0000   0.0000
     2   67   4.02740329  V =    0.4917   0.0000   0.0000   0.0000
     2   91   4.02740329  V =    0.4917   0.0000   0.0000   0.0000
     3    3   0.00000000  V =    0.0000   0.0000   0.0000   0.0000
     3   22   4.02740329  V =    0.4917   0.0000   0.0000   0.0000
     3   46   4.02740329  V =    0.4917   0.0000   0.0000   0.0000
     3   54   4.02740329  V =    0.4917   0.0000   0.0000   0.0000
     3   57   4.02740329  V =    0.4917   0.0000   0.0000   0.0000
     3   65   4.02740329  V =    0.4917   0.0000   0.0000   0.0000
     3   89   4.02740329  V =    0.4917   0.0000   0.0000   0.0000
     4    4   0.00000000  V =    0.0000   0.0000   0.0000   0.0000
     4   58   4.02740329  V =    0.4917   0.0000   0.0000   0.0000
     4   66   4.02740329  V =    0.4917   0.0000   0.0000   0.0000
     4   69   4.02740329  V =    0.4917   0.0000   0.0000   0.0000
     4   90   4.02740329  V =    0.4917   0.0000   0.0000   0.0000
     4   93   4.02740329  V =    0.4917   0.0000   0.0000   0.0000
     4  101   4.02740329  V =    0.4917   0.0000   0.0000   0.0000
 
     G-vector sticks info
     --------------------
     sticks:   dense  smooth     PW     G-vecs:    dense   smooth      PW
     Sum        1201     597    207                20701     7367    1491
 

     Check: negative core charge=   -0.000039

     Gaussian broadening (read from input): ngauss,degauss=   0    0.005000


     Calling projwave .... 
 
  Problem Sizes 
  natomwfc =           34
  nbnd     =           40
  nkstot   =           64
  npwx     =          954
  nkb      =           52
 

     Atomic states used for projection
     (read from pseudopotential files):

     state #   1: atom   1 (Co1), wfc  1 (l=0 m= 1)
     state #   2: atom   1 (Co1), wfc  2 (l=1 m= 1)
     state #   3: atom   1 (Co1), wfc  2 (l=1 m= 2)
     state #   4: atom   1 (Co1), wfc  2 (l=1 m= 3)
     state #   5: atom   1 (Co1), wfc  3 (l=2 m= 1)
     state #   6: atom   1 (Co1), wfc  3 (l=2 m= 2)
     state #   7: atom   1 (Co1), wfc  3 (l=2 m= 3)
     state #   8: atom   1 (Co1), wfc  3 (l=2 m= 4)
     state #   9: atom   1 (Co1), wfc  3 (l=2 m= 5)
     state #  10: atom   1 (Co1), wfc  4 (l=0 m= 1)
     state #  11: atom   1 (Co1), wfc  5 (l=1 m= 1)
     state #  12: atom   1 (Co1), wfc  5 (l=1 m= 2)
     state #  13: atom   1 (Co1), wfc  5 (l=1 m= 3)
     state #  14: atom   2 (Co2), wfc  1 (l=0 m= 1)
     state #  15: atom   2 (Co2), wfc  2 (l=1 m= 1)
     state #  16: atom   2 (Co2), wfc  2 (l=1 m= 2)
     state #  17: atom   2 (Co2), wfc  2 (l=1 m= 3)
     state #  18: atom   2 (Co2), wfc  3 (l=2 m= 1)
     state #  19: atom   2 (Co2), wfc  3 (l=2 m= 2)
     state #  20: atom   2 (Co2), wfc  3 (l=2 m= 3)
     state #  21: atom   2 (Co2), wfc  3 (l=2 m= 4)
     state #  22: atom   2 (Co2), wfc  3 (l=2 m= 5)
     state #  23: atom   2 (Co2), wfc  4 (l=0 m= 1)
     state #  24: atom   2 (Co2), wfc  5 (l=1 m= 1)
     state #  25: atom   2 (Co2), wfc  5 (l=1 m= 2)
     state #  26: atom   2 (Co2), wfc  5 (l=1 m= 3)
     state #  27: atom   3 (O  ), wfc  1 (l=0 m= 1)
     state #  28: atom   3 (O  ), wfc  2 (l=1 m= 1)
     state #  29: atom   3 (O  ), wfc  2 (l=1 m= 2)
     state #  30: atom   3 (O  ), wfc  2 (l=1 m= 3)
     state #  31: atom   4 (O  ), wfc  1 (l=0 m= 1)
     state #  32: atom   4 (O  ), wfc  2 (l=1 m= 1)
     state #  33: atom   4 (O  ), wfc  2 (l=1 m= 2)
     state #  34: atom   4 (O  ), wfc  2 (l=1 m= 3)

 k =   0.0000000000  0.0000000000  0.0000000000
==== e(   1) =   -83.39835 eV ==== 
     psi = 0.990*[#   1]+0.004*[#  23]+0.001*[#  10]
    |psi|^2 = 1.000
==== e(   2) =   -79.83806 eV ==== 
     psi = 0.990*[#  14]+0.004*[#  10]+0.002*[#  23]
    |psi|^2 = 1.000
==== e(   3) =   -47.35635 eV ==== 
     psi = 0.331*[#   2]+0.331*[#   3]+0.331*[#   4]+0.002*[#  24]+0.002*[#  25]
          +0.002*[#  26]
    |psi|^2 = 1.000
==== e(   4) =   -46.48649 eV ==== 
     psi = 0.331*[#   2]+0.331*[#   3]+0.331*[#   4]+0.002*[#  11]+0.002*[#  12]
          +0.002*[#  13]
    |psi|^2 = 1.000
==== e(   5) =   -46.48649 eV ==== 
     psi = 0.331*[#   2]+0.331*[#   3]+0.331*[#   4]+0.002*[#  11]+0.002*[#  12]
          +0.002*[#  13]
    |psi|^2 = 1.000
==== e(   6) =   -43.56125 eV ==== 
     psi = 0.331*[#  15]+0.331*[#  16]+0.331*[#  17]+0.002*[#  11]+0.002*[#  12]
          +0.002*[#  13]
    |psi|^2 = 1.000
==== e(   7) =   -43.23551 eV ==== 
     psi = 0.332*[#  15]+0.332*[#  16]+0.332*[#  17]+0.001*[#  24]+0.001*[#  25]
          +0.001*[#  26]
    |psi|^2 = 1.000
==== e(   8) =   -43.23551 eV ==== 
     psi = 0.332*[#  15]+0.332*[#  16]+0.332*[#  17]+0.001*[#  24]+0.001*[#  25]
          +0.001*[#  26]
    |psi|^2 = 1.000
==== e(   9) =    -6.06134 eV ==== 
     psi = 0.323*[#  27]+0.323*[#  31]+0.177*[#  10]+0.171*[#  23]+0.003*[#  14]
          +0.003*[#   1]
    |psi|^2 = 1.000
==== e(  10) =    -4.71889 eV ==== 
     psi = 0.367*[#  27]+0.367*[#  31]+0.044*[#  11]+0.044*[#  12]+0.044*[#  13]
          +0.043*[#  24]+0.043*[#  25]+0.043*[#  26]
    |psi|^2 = 0.999
==== e(  11) =     4.82204 eV ==== 
     psi = 0.175*[#   6]+0.175*[#   7]+0.175*[#   9]+0.070*[#  10]+0.070*[#  23]
          +0.053*[#  28]+0.053*[#  29]+0.053*[#  30]+0.053*[#  32]+0.053*[#  33]
          +0.053*[#  34]+0.004*[#  19]+0.004*[#  20]+0.004*[#  22]+0.001*[#  14]
          
    |psi|^2 = 0.999
==== e(  12) =     6.01253 eV ==== 
     psi = 0.382*[#   5]+0.382*[#   8]+0.029*[#  28]+0.029*[#  29]+0.029*[#  30]
          +0.029*[#  32]+0.029*[#  33]+0.029*[#  34]+0.016*[#   6]+0.016*[#   7]
          +0.016*[#   9]+0.003*[#  18]+0.003*[#  21]+0.002*[#  19]+0.002*[#  20]
          +0.002*[#  22]
    |psi|^2 = 0.999
==== e(  13) =     6.01253 eV ==== 
     psi = 0.382*[#   5]+0.382*[#   8]+0.029*[#  28]+0.029*[#  29]+0.029*[#  30]
          +0.029*[#  32]+0.029*[#  33]+0.029*[#  34]+0.016*[#   6]+0.016*[#   7]
          +0.016*[#   9]+0.003*[#  18]+0.003*[#  21]+0.002*[#  19]+0.002*[#  20]
          +0.002*[#  22]
    |psi|^2 = 0.999
==== e(  14) =     7.45773 eV ==== 
     psi = 0.302*[#   6]+0.302*[#   7]+0.302*[#   9]+0.030*[#   5]+0.030*[#   8]
          +0.009*[#  19]+0.009*[#  20]+0.009*[#  22]+0.001*[#  18]+0.001*[#  21]
          
    |psi|^2 = 0.998
==== e(  15) =     7.45773 eV ==== 
     psi = 0.302*[#   6]+0.302*[#   7]+0.302*[#   9]+0.030*[#   5]+0.030*[#   8]
          +0.009*[#  19]+0.009*[#  20]+0.009*[#  22]+0.001*[#  18]+0.001*[#  21]
          
    |psi|^2 = 0.998
==== e(  16) =     7.94076 eV ==== 
     psi = 0.157*[#   6]+0.157*[#   7]+0.157*[#   9]+0.071*[#  10]+0.062*[#  23]
          +0.060*[#  28]+0.060*[#  29]+0.060*[#  30]+0.060*[#  32]+0.060*[#  33]
          +0.060*[#  34]+0.010*[#  19]+0.010*[#  20]+0.010*[#  22]+0.001*[#   1]
          
    |psi|^2 = 0.999
==== e(  17) =     9.72810 eV ==== 
     psi = 0.308*[#  19]+0.308*[#  20]+0.308*[#  22]+0.012*[#   5]+0.012*[#   8]
          +0.007*[#  18]+0.007*[#  21]+0.006*[#   6]+0.006*[#   7]+0.006*[#   9]
          +0.002*[#  28]+0.002*[#  29]+0.002*[#  30]+0.002*[#  32]+0.002*[#  33]
          +0.002*[#  34]
    |psi|^2 = 0.995
==== e(  18) =     9.72810 eV ==== 
     psi = 0.308*[#  19]+0.308*[#  20]+0.308*[#  22]+0.012*[#   5]+0.012*[#   8]
          +0.007*[#  18]+0.007*[#  21]+0.006*[#   6]+0.006*[#   7]+0.006*[#   9]
          +0.002*[#  28]+0.002*[#  29]+0.002*[#  30]+0.002*[#  32]+0.002*[#  33]
          +0.002*[#  34]
    |psi|^2 = 0.995
==== e(  19) =    11.05116 eV ==== 
     psi = 0.162*[#  28]+0.162*[#  29]+0.162*[#  30]+0.162*[#  32]+0.162*[#  33]
          +0.162*[#  34]+0.005*[#  11]+0.005*[#  12]+0.005*[#  13]+0.004*[#  24]
          +0.004*[#  25]+0.004*[#  26]
    |psi|^2 = 0.996
==== e(  20) =    11.05117 eV ==== 
     psi = 0.162*[#  28]+0.162*[#  29]+0.162*[#  30]+0.162*[#  32]+0.162*[#  33]
          +0.162*[#  34]+0.005*[#  11]+0.005*[#  12]+0.005*[#  13]+0.004*[#  24]
          +0.004*[#  25]+0.004*[#  26]
    |psi|^2 = 0.996
==== e(  21) =    11.08188 eV ==== 
     psi = 0.162*[#  28]+0.162*[#  29]+0.162*[#  30]+0.162*[#  32]+0.162*[#  33]
          +0.162*[#  34]+0.004*[#  11]+0.004*[#  12]+0.004*[#  13]+0.004*[#  24]
          +0.004*[#  25]+0.004*[#  26]
    |psi|^2 = 0.996
==== e(  22) =    11.20301 eV ==== 
     psi = 0.105*[#  28]+0.105*[#  29]+0.105*[#  30]+0.105*[#  32]+0.105*[#  33]
          +0.105*[#  34]+0.094*[#  18]+0.094*[#  21]+0.071*[#   5]+0.071*[#   8]
          +0.009*[#   6]+0.009*[#   7]+0.009*[#   9]+0.003*[#  19]+0.003*[#  20]
          +0.003*[#  22]
    |psi|^2 = 0.995
==== e(  23) =    11.20301 eV ==== 
     psi = 0.105*[#  28]+0.105*[#  29]+0.105*[#  30]+0.105*[#  32]+0.105*[#  33]
          +0.105*[#  34]+0.094*[#  18]+0.094*[#  21]+0.071*[#   5]+0.071*[#   8]
          +0.009*[#   6]+0.009*[#   7]+0.009*[#   9]+0.003*[#  19]+0.003*[#  20]
          +0.003*[#  22]
    |psi|^2 = 0.995
==== e(  24) =    14.77184 eV ==== 
     psi = 0.333*[#  10]+0.305*[#  23]+0.176*[#  27]+0.176*[#  31]+0.003*[#  14]
          +0.002*[#   1]
    |psi|^2 = 0.995
==== e(  25) =    16.56212 eV ==== 
     psi = 0.313*[#  19]+0.313*[#  20]+0.313*[#  22]+0.008*[#  28]+0.008*[#  29]
          +0.008*[#  30]+0.008*[#  32]+0.008*[#  33]+0.008*[#  34]+0.001*[#  23]
          
    |psi|^2 = 0.989
==== e(  26) =    17.46130 eV ==== 
     psi = 0.392*[#  18]+0.392*[#  21]+0.028*[#  28]+0.028*[#  29]+0.028*[#  30]
          +0.028*[#  32]+0.028*[#  33]+0.028*[#  34]+0.010*[#  19]+0.010*[#  20]
          +0.010*[#  22]+0.005*[#   5]+0.005*[#   8]
    |psi|^2 = 0.995
==== e(  27) =    17.46130 eV ==== 
     psi = 0.392*[#  18]+0.392*[#  21]+0.028*[#  28]+0.028*[#  29]+0.028*[#  30]
          +0.028*[#  32]+0.028*[#  33]+0.028*[#  34]+0.010*[#  19]+0.010*[#  20]
          +0.010*[#  22]+0.005*[#   5]+0.005*[#   8]
    |psi|^2 = 0.995
==== e(  28) =    18.50686 eV ==== 
     psi = 0.123*[#  27]+0.123*[#  31]+0.122*[#  11]+0.122*[#  12]+0.122*[#  13]
          +0.109*[#  24]+0.109*[#  25]+0.109*[#  26]
    |psi|^2 = 0.944
==== e(  29) =    23.48071 eV ==== 
     psi = 0.369*[#  23]+0.332*[#  10]+0.043*[#  28]+0.043*[#  29]+0.043*[#  30]
          +0.043*[#  32]+0.043*[#  33]+0.043*[#  34]+0.002*[#   1]+0.002*[#  19]
          +0.002*[#  20]+0.002*[#  22]+0.002*[#  14]
    |psi|^2 = 0.971
==== e(  30) =    26.92397 eV ==== 
     psi = 0.167*[#  11]+0.167*[#  12]+0.167*[#  13]+0.143*[#  24]+0.143*[#  25]
          +0.143*[#  26]
    |psi|^2 = 0.935
==== e(  31) =    26.92397 eV ==== 
     psi = 0.167*[#  11]+0.167*[#  12]+0.167*[#  13]+0.143*[#  24]+0.143*[#  25]
          +0.143*[#  26]
    |psi|^2 = 0.935
==== e(  32) =    30.05778 eV ==== 
 
    |psi|^2 = 0.001
==== e(  33) =    31.67593 eV ==== 
     psi = 0.002*[#  19]+0.002*[#  20]+0.002*[#  22]
    |psi|^2 = 0.006
==== e(  34) =    31.67593 eV ==== 
     psi = 0.002*[#  19]+0.002*[#  20]+0.002*[#  22]
    |psi|^2 = 0.006
==== e(  35) =    31.72948 eV ==== 
     psi = 0.003*[#  19]+0.003*[#  20]+0.003*[#  22]+0.001*[#  23]
    |psi|^2 = 0.011
==== e(  36) =    33.96941 eV ==== 
     psi = 0.013*[#  23]+0.009*[#  10]+0.001*[#  19]+0.001*[#  20]+0.001*[#  22]
          
    |psi|^2 = 0.030
==== e(  37) =    35.21668 eV ==== 
     psi = 0.158*[#  24]+0.158*[#  25]+0.158*[#  26]+0.154*[#  11]+0.154*[#  12]
          +0.154*[#  13]+0.004*[#  28]+0.004*[#  29]+0.004*[#  30]+0.004*[#  32]
          +0.004*[#  33]+0.004*[#  34]+0.001*[#   2]+0.001*[#   3]+0.001*[#   4]
          +0.001*[#  15]+0.001*[#  16]+0.001*[#  17]
    |psi|^2 = 0.966
==== e(  38) =    35.30300 eV ==== 
     psi = 0.165*[#  24]+0.165*[#  25]+0.165*[#  26]+0.149*[#  11]+0.149*[#  12]
          +0.149*[#  13]+0.004*[#  28]+0.004*[#  29]+0.004*[#  30]+0.004*[#  32]
          +0.004*[#  33]+0.004*[#  34]+0.001*[#   2]+0.001*[#   3]+0.001*[#   4]
          +0.001*[#  15]+0.001*[#  16]+0.001*[#  17]
    |psi|^2 = 0.973
==== e(  39) =    35.30300 eV ==== 
     psi = 0.165*[#  24]+0.165*[#  25]+0.165*[#  26]+0.149*[#  11]+0.149*[#  12]
          +0.149*[#  13]+0.004*[#  28]+0.004*[#  29]+0.004*[#  30]+0.004*[#  32]
          +0.004*[#  33]+0.004*[#  34]+0.001*[#   2]+0.001*[#   3]+0.001*[#   4]
          +0.001*[#  15]+0.001*[#  16]+0.001*[#  17]
    |psi|^2 = 0.973
==== e(  40) =    38.14804 eV ==== 
 
    |psi|^2 = 0.005

 k =   0.2479678040 -0.0824331535 -0.0824331535
==== e(   1) =   -83.39784 eV ==== 
     psi = 0.976*[#   1]+0.005*[#  11]+0.005*[#  12]+0.005*[#  13]+0.002*[#  24]
          +0.002*[#  25]+0.002*[#  26]
    |psi|^2 = 1.000
==== e(   2) =   -79.83737 eV ==== 
     psi = 0.976*[#  14]+0.005*[#  24]+0.005*[#  25]+0.005*[#  26]+0.002*[#  11]
          +0.002*[#  12]+0.002*[#  13]
    |psi|^2 = 1.000
==== e(   3) =   -47.35566 eV ==== 
     psi = 0.331*[#   2]+0.331*[#   3]+0.331*[#   4]+0.002*[#  24]+0.002*[#  25]
          +0.002*[#  26]
    |psi|^2 = 1.000
==== e(   4) =   -46.49360 eV ==== 
     psi = 0.332*[#   2]+0.332*[#   3]+0.332*[#   4]
    |psi|^2 = 1.000
==== e(   5) =   -46.48819 eV ==== 
     psi = 0.332*[#   2]+0.332*[#   3]+0.332*[#   4]+0.001*[#  11]+0.001*[#  12]
          +0.001*[#  13]
    |psi|^2 = 1.000
==== e(   6) =   -43.56023 eV ==== 
     psi = 0.331*[#  15]+0.331*[#  16]+0.331*[#  17]+0.002*[#  11]+0.002*[#  12]
          +0.002*[#  13]
    |psi|^2 = 1.000
==== e(   7) =   -43.24401 eV ==== 
     psi = 0.333*[#  15]+0.333*[#  16]+0.333*[#  17]
    |psi|^2 = 1.000
==== e(   8) =   -43.23765 eV ==== 
     psi = 0.332*[#  15]+0.332*[#  16]+0.332*[#  17]+0.001*[#  24]+0.001*[#  25]
          +0.001*[#  26]
    |psi|^2 = 1.000
==== e(   9) =    -5.79552 eV ==== 
     psi = 0.317*[#  27]+0.317*[#  31]+0.102*[#  10]+0.098*[#  23]+0.026*[#  11]
          +0.026*[#  12]+0.026*[#  13]+0.026*[#  24]+0.026*[#  25]+0.026*[#  26]
          +0.004*[#  14]+0.004*[#   1]
    |psi|^2 = 1.000
==== e(  10) =    -4.70539 eV ==== 
     psi = 0.382*[#  27]+0.382*[#  31]+0.036*[#  11]+0.036*[#  12]+0.036*[#  13]
          +0.036*[#  24]+0.036*[#  25]+0.036*[#  26]+0.006*[#   5]+0.006*[#   8]
          +0.002*[#  18]+0.002*[#  21]
    |psi|^2 = 0.999
==== e(  11) =     5.17177 eV ==== 
     psi = 0.185*[#   6]+0.185*[#   7]+0.185*[#   9]+0.051*[#  23]+0.046*[#  28]
          +0.046*[#  29]+0.046*[#  30]+0.046*[#  32]+0.046*[#  33]+0.046*[#  34]
          +0.039*[#  10]+0.014*[#   5]+0.014*[#   8]+0.007*[#  11]+0.007*[#  12]
          +0.007*[#  13]+0.006*[#  24]+0.006*[#  25]+0.006*[#  26]+0.003*[#  19]
          +0.003*[#  20]+0.003*[#  22]+0.001*[#  14]
    |psi|^2 = 0.999
==== e(  12) =     6.04012 eV ==== 
     psi = 0.335*[#   5]+0.335*[#   8]+0.032*[#  28]+0.032*[#  29]+0.032*[#  30]
          +0.032*[#  32]+0.032*[#  33]+0.032*[#  34]+0.031*[#   6]+0.031*[#   7]
          +0.031*[#   9]+0.006*[#  11]+0.006*[#  12]+0.006*[#  13]+0.004*[#  24]
          +0.004*[#  25]+0.004*[#  26]+0.003*[#  19]+0.003*[#  20]+0.003*[#  22]
          +0.001*[#  27]+0.001*[#  31]
    |psi|^2 = 0.999
==== e(  13) =     6.09866 eV ==== 
     psi = 0.401*[#   5]+0.401*[#   8]+0.029*[#  28]+0.029*[#  29]+0.029*[#  30]
          +0.029*[#  32]+0.029*[#  33]+0.029*[#  34]+0.003*[#   6]+0.003*[#   7]
          +0.003*[#   9]+0.002*[#  18]+0.002*[#  21]+0.002*[#  19]+0.002*[#  20]
          +0.002*[#  22]
    |psi|^2 = 0.999
==== e(  14) =     7.15568 eV ==== 
     psi = 0.265*[#   6]+0.265*[#   7]+0.265*[#   9]+0.033*[#   5]+0.033*[#   8]
          +0.013*[#  28]+0.013*[#  29]+0.013*[#  30]+0.013*[#  32]+0.013*[#  33]
          +0.013*[#  34]+0.009*[#  10]+0.009*[#  19]+0.009*[#  20]+0.009*[#  22]
          +0.004*[#  18]+0.004*[#  21]+0.003*[#  27]+0.003*[#  31]+0.002*[#  24]
          +0.002*[#  25]+0.002*[#  26]+0.001*[#  23]
    |psi|^2 = 0.997
==== e(  15) =     7.45047 eV ==== 
     psi = 0.302*[#   6]+0.302*[#   7]+0.302*[#   9]+0.009*[#  19]+0.009*[#  20]
          +0.009*[#  22]+0.007*[#   5]+0.007*[#   8]+0.007*[#  28]+0.007*[#  29]
          +0.007*[#  30]+0.007*[#  32]+0.007*[#  33]+0.007*[#  34]+0.003*[#  18]
          +0.003*[#  21]+0.001*[#  11]+0.001*[#  12]+0.001*[#  13]
    |psi|^2 = 0.998
==== e(  16) =     8.00680 eV ==== 
     psi = 0.133*[#   6]+0.133*[#   7]+0.133*[#   9]+0.080*[#  10]+0.068*[#  28]
          +0.068*[#  29]+0.068*[#  30]+0.068*[#  32]+0.068*[#  33]+0.068*[#  34]
          +0.040*[#  23]+0.010*[#  19]+0.010*[#  20]+0.010*[#  22]+0.005*[#  11]
          +0.005*[#  12]+0.005*[#  13]+0.005*[#  24]+0.005*[#  25]+0.005*[#  26]
          +0.002*[#  27]+0.002*[#  31]+0.001*[#   1]
    |psi|^2 = 0.999
==== e(  17) =     9.18384 eV ==== 
     psi = 0.215*[#  19]+0.215*[#  20]+0.215*[#  22]+0.039*[#   5]+0.039*[#   8]
          +0.035*[#  28]+0.035*[#  29]+0.035*[#  30]+0.035*[#  32]+0.035*[#  33]
          +0.035*[#  34]+0.008*[#  11]+0.008*[#  12]+0.008*[#  13]+0.006*[#  27]
          +0.006*[#  31]+0.005*[#  23]+0.003*[#  24]+0.003*[#  25]+0.003*[#  26]
          +0.002*[#   6]+0.002*[#   7]+0.002*[#   9]
    |psi|^2 = 0.994
==== e(  18) =     9.65040 eV ==== 
     psi = 0.254*[#  19]+0.254*[#  20]+0.254*[#  22]+0.022*[#  18]+0.022*[#  21]
          +0.020*[#  28]+0.020*[#  29]+0.020*[#  30]+0.020*[#  32]+0.020*[#  33]
          +0.020*[#  34]+0.019*[#   6]+0.019*[#   7]+0.019*[#   9]+0.004*[#   5]
          +0.004*[#   8]+0.002*[#  11]+0.002*[#  12]+0.002*[#  13]+0.001*[#  24]
          +0.001*[#  25]+0.001*[#  26]
    |psi|^2 = 0.997
==== e(  19) =     9.65043 eV ==== 
     psi = 0.111*[#  28]+0.111*[#  29]+0.111*[#  30]+0.111*[#  32]+0.111*[#  33]
          +0.111*[#  34]+0.039*[#  18]+0.039*[#  21]+0.036*[#   6]+0.036*[#   7]
          +0.036*[#   9]+0.034*[#  23]+0.030*[#  10]+0.020*[#  27]+0.020*[#  31]
          +0.007*[#  24]+0.007*[#  25]+0.007*[#  26]+0.003*[#  19]+0.003*[#  20]
          +0.003*[#  22]+0.002*[#  11]+0.002*[#  12]+0.002*[#  13]
    |psi|^2 = 0.996
==== e(  20) =    10.73352 eV ==== 
     psi = 0.098*[#  28]+0.098*[#  29]+0.098*[#  30]+0.098*[#  32]+0.098*[#  33]
          +0.098*[#  34]+0.083*[#  19]+0.083*[#  20]+0.083*[#  22]+0.030*[#  18]
          +0.030*[#  21]+0.029*[#  23]+0.011*[#  10]+0.011*[#  27]+0.011*[#  31]
          +0.007*[#   5]+0.007*[#   8]+0.004*[#  11]+0.004*[#  12]+0.004*[#  13]
          +0.001*[#   6]+0.001*[#   7]+0.001*[#   9]
    |psi|^2 = 0.996
==== e(  21) =    10.80487 eV ==== 
     psi = 0.113*[#  28]+0.113*[#  29]+0.113*[#  30]+0.113*[#  32]+0.113*[#  33]
          +0.113*[#  34]+0.042*[#   5]+0.042*[#   8]+0.041*[#  18]+0.041*[#  21]
          +0.036*[#  19]+0.036*[#  20]+0.036*[#  22]+0.009*[#   6]+0.009*[#   7]
          +0.009*[#   9]+0.006*[#  11]+0.006*[#  12]+0.006*[#  13]
    |psi|^2 = 0.996
==== e(  22) =    11.50695 eV ==== 
     psi = 0.129*[#  28]+0.129*[#  29]+0.129*[#  30]+0.129*[#  32]+0.129*[#  33]
          +0.129*[#  34]+0.042*[#   5]+0.042*[#   8]+0.025*[#  18]+0.025*[#  21]
          +0.022*[#  19]+0.022*[#  20]+0.022*[#  22]+0.008*[#  24]+0.008*[#  25]
          +0.008*[#  26]
    |psi|^2 = 0.997
==== e(  23) =    11.56126 eV ==== 
     psi = 0.127*[#  28]+0.127*[#  29]+0.127*[#  30]+0.127*[#  32]+0.127*[#  33]
          +0.127*[#  34]+0.061*[#   5]+0.061*[#   8]+0.013*[#  23]+0.010*[#  27]
          +0.010*[#  31]+0.009*[#   6]+0.009*[#   7]+0.009*[#   9]+0.009*[#  24]
          +0.009*[#  25]+0.009*[#  26]+0.004*[#  11]+0.004*[#  12]+0.004*[#  13]
          +0.004*[#  19]+0.004*[#  20]+0.004*[#  22]+0.001*[#  10]+0.001*[#  18]
          +0.001*[#  21]
    |psi|^2 = 0.996
==== e(  24) =    16.16952 eV ==== 
     psi = 0.185*[#  10]+0.112*[#  27]+0.112*[#  31]+0.110*[#  23]+0.063*[#  18]
          +0.063*[#  21]+0.031*[#  19]+0.031*[#  20]+0.031*[#  22]+0.027*[#  24]
          +0.027*[#  25]+0.027*[#  26]+0.020*[#  28]+0.020*[#  29]+0.020*[#  30]
          +0.020*[#  32]+0.020*[#  33]+0.020*[#  34]+0.016*[#  11]+0.016*[#  12]
          +0.016*[#  13]+0.002*[#  14]+0.002*[#   1]+0.002*[#   5]+0.002*[#   8]
          
    |psi|^2 = 0.994
==== e(  25) =    16.63651 eV ==== 
     psi = 0.284*[#  19]+0.284*[#  20]+0.284*[#  22]+0.018*[#  23]+0.012*[#  28]
          +0.012*[#  29]+0.012*[#  30]+0.012*[#  32]+0.012*[#  33]+0.012*[#  34]
          +0.009*[#  10]+0.008*[#  27]+0.008*[#  31]+0.006*[#  18]+0.006*[#  21]
          +0.003*[#  11]+0.003*[#  12]+0.003*[#  13]
    |psi|^2 = 0.991
==== e(  26) =    17.32940 eV ==== 
     psi = 0.331*[#  18]+0.331*[#  21]+0.034*[#  23]+0.030*[#  27]+0.030*[#  31]
          +0.020*[#  28]+0.020*[#  29]+0.020*[#  30]+0.020*[#  32]+0.020*[#  33]
          +0.020*[#  34]+0.020*[#  11]+0.020*[#  12]+0.020*[#  13]+0.011*[#  10]
          +0.009*[#  19]+0.009*[#  20]+0.009*[#  22]+0.006*[#  24]+0.006*[#  25]
          +0.006*[#  26]
    |psi|^2 = 0.995
==== e(  27) =    17.40926 eV ==== 
     psi = 0.405*[#  18]+0.405*[#  21]+0.024*[#  28]+0.024*[#  29]+0.024*[#  30]
          +0.024*[#  32]+0.024*[#  33]+0.024*[#  34]+0.009*[#  19]+0.009*[#  20]
          +0.009*[#  22]+0.004*[#   5]+0.004*[#   8]+0.002*[#  11]+0.002*[#  12]
          +0.002*[#  13]
    |psi|^2 = 0.996
==== e(  28) =    20.06404 eV ==== 
     psi = 0.109*[#  11]+0.109*[#  12]+0.109*[#  13]+0.100*[#  24]+0.100*[#  25]
          +0.100*[#  26]+0.080*[#  27]+0.080*[#  31]+0.019*[#  28]+0.019*[#  29]
          +0.019*[#  30]+0.019*[#  32]+0.019*[#  33]+0.019*[#  34]+0.018*[#  18]
          +0.018*[#  21]+0.001*[#   5]+0.001*[#   8]
    |psi|^2 = 0.945
==== e(  29) =    23.13091 eV ==== 
     psi = 0.371*[#  23]+0.347*[#  10]+0.039*[#  28]+0.039*[#  29]+0.039*[#  30]
          +0.039*[#  32]+0.039*[#  33]+0.039*[#  34]+0.003*[#  24]+0.003*[#  25]
          +0.003*[#  26]+0.003*[#   1]+0.002*[#  14]+0.002*[#  19]+0.002*[#  20]
          +0.002*[#  22]+0.001*[#  11]+0.001*[#  12]+0.001*[#  13]
    |psi|^2 = 0.979
==== e(  30) =    25.22484 eV ==== 
     psi = 0.147*[#  11]+0.147*[#  12]+0.147*[#  13]+0.118*[#  24]+0.118*[#  25]
          +0.118*[#  26]+0.027*[#  10]+0.017*[#  23]+0.011*[#  28]+0.011*[#  29]
          +0.011*[#  30]+0.011*[#  32]+0.011*[#  33]+0.011*[#  34]+0.004*[#  19]
          +0.004*[#  20]+0.004*[#  22]+0.002*[#   1]+0.001*[#  27]+0.001*[#  31]
          
    |psi|^2 = 0.922
==== e(  31) =    27.45864 eV ==== 
     psi = 0.043*[#  24]+0.043*[#  25]+0.043*[#  26]+0.037*[#  11]+0.037*[#  12]
          +0.037*[#  13]+0.022*[#  23]+0.016*[#  10]+0.002*[#  19]+0.002*[#  20]
          +0.002*[#  22]+0.002*[#  28]+0.002*[#  29]+0.002*[#  30]+0.002*[#  32]
          +0.002*[#  33]+0.002*[#  34]+0.001*[#  14]+0.001*[#   1]
    |psi|^2 = 0.303
==== e(  32) =    27.58471 eV ==== 
     psi = 0.173*[#  11]+0.173*[#  12]+0.173*[#  13]+0.133*[#  24]+0.133*[#  25]
          +0.133*[#  26]+0.004*[#  28]+0.004*[#  29]+0.004*[#  30]+0.004*[#  32]
          +0.004*[#  33]+0.004*[#  34]
    |psi|^2 = 0.946
==== e(  33) =    30.28852 eV ==== 
     psi = 0.103*[#  23]+0.088*[#  10]+0.079*[#  24]+0.079*[#  25]+0.079*[#  26]
          +0.056*[#  11]+0.056*[#  12]+0.056*[#  13]+0.007*[#  14]+0.006*[#   1]
          +0.003*[#  27]+0.003*[#  31]+0.002*[#  19]+0.002*[#  20]+0.002*[#  22]
          +0.002*[#  28]+0.002*[#  29]+0.002*[#  30]+0.002*[#  32]+0.002*[#  33]
          +0.002*[#  34]
    |psi|^2 = 0.633
==== e(  34) =    30.35125 eV ==== 
     psi = 0.113*[#  24]+0.113*[#  25]+0.113*[#  26]+0.086*[#  11]+0.086*[#  12]
          +0.086*[#  13]+0.004*[#  28]+0.004*[#  29]+0.004*[#  30]+0.004*[#  32]
          +0.004*[#  33]+0.004*[#  34]+0.001*[#  19]+0.001*[#  20]+0.001*[#  22]
          
    |psi|^2 = 0.631
==== e(  35) =    31.95578 eV ==== 
     psi = 0.092*[#  24]+0.092*[#  25]+0.092*[#  26]+0.089*[#  11]+0.089*[#  12]
          +0.089*[#  13]+0.012*[#  23]+0.009*[#  10]+0.002*[#  28]+0.002*[#  29]
          +0.002*[#  30]+0.002*[#  32]+0.002*[#  33]+0.002*[#  34]+0.001*[#  18]
          +0.001*[#  21]
    |psi|^2 = 0.585
==== e(  36) =    34.29306 eV ==== 
     psi = 0.022*[#  11]+0.022*[#  12]+0.022*[#  13]+0.011*[#  24]+0.011*[#  25]
          +0.011*[#  26]+0.009*[#  23]+0.006*[#  10]
    |psi|^2 = 0.124
==== e(  37) =    35.02730 eV ==== 
     psi = 0.012*[#  24]+0.012*[#  25]+0.012*[#  26]+0.004*[#  27]+0.004*[#  31]
          +0.002*[#  11]+0.002*[#  12]+0.002*[#  13]
    |psi|^2 = 0.056
==== e(  38) =    36.51597 eV ==== 
     psi = 0.036*[#  24]+0.036*[#  25]+0.036*[#  26]+0.035*[#  11]+0.035*[#  12]
          +0.035*[#  13]
    |psi|^2 = 0.224
==== e(  39) =    36.79246 eV ==== 
     psi = 0.011*[#  24]+0.011*[#  25]+0.011*[#  26]+0.001*[#  11]+0.001*[#  12]
          +0.001*[#  13]
    |psi|^2 = 0.043
==== e(  40) =    37.17180 eV ==== 
     psi = 0.006*[#  23]+0.005*[#  24]+0.005*[#  25]+0.005*[#  26]+0.003*[#  11]
          +0.003*[#  12]+0.003*[#  13]+0.003*[#  10]+0.001*[#  27]+0.001*[#  31]
          +0.001*[#  28]+0.001*[#  29]+0.001*[#  30]+0.001*[#  32]+0.001*[#  33]
          +0.001*[#  34]
    |psi|^2 = 0.040

 k =   0.4959356079 -0.1648663069 -0.1648663069
==== e(   1) =   -83.39695 eV ==== 
     psi = 0.979*[#   1]+0.003*[#  11]+0.003*[#  12]+0.003*[#  13]+0.002*[#  24]
          +0.002*[#  25]+0.002*[#  26]+0.002*[#  10]
    |psi|^2 = 1.000
==== e(   2) =   -79.83597 eV ==== 
     psi = 0.979*[#  14]+0.003*[#  24]+0.003*[#  25]+0.003*[#  26]+0.002*[#  11]
          +0.002*[#  12]+0.002*[#  13]+0.002*[#  23]
    |psi|^2 = 1.000
==== e(   3) =   -47.35403 eV ==== 
     psi = 0.332*[#   2]+0.332*[#   3]+0.332*[#   4]
    |psi|^2 = 1.000
==== e(   4) =   -46.50716 eV ==== 
     psi = 0.332*[#   2]+0.332*[#   3]+0.332*[#   4]
    |psi|^2 = 1.000
==== e(   5) =   -46.49196 eV ==== 
     psi = 0.332*[#   2]+0.332*[#   3]+0.332*[#   4]
    |psi|^2 = 1.000
==== e(   6) =   -43.55813 eV ==== 
     psi = 0.332*[#  15]+0.332*[#  16]+0.332*[#  17]
    |psi|^2 = 1.000
==== e(   7) =   -43.26062 eV ==== 
     psi = 0.332*[#  15]+0.332*[#  16]+0.332*[#  17]
    |psi|^2 = 1.000
==== e(   8) =   -43.24202 eV ==== 
     psi = 0.332*[#  15]+0.332*[#  16]+0.332*[#  17]
    |psi|^2 = 1.000
==== e(   9) =    -5.21236 eV ==== 
     psi = 0.346*[#  27]+0.346*[#  31]+0.040*[#  24]+0.040*[#  25]+0.040*[#  26]
          +0.036*[#  10]+0.033*[#  11]+0.033*[#  12]+0.033*[#  13]+0.032*[#  23]
          +0.006*[#   5]+0.006*[#   8]+0.002*[#  14]+0.002*[#   1]+0.001*[#  18]
          +0.001*[#  21]
    |psi|^2 = 1.000
==== e(  10) =    -4.66633 eV ==== 
     psi = 0.406*[#  27]+0.406*[#  31]+0.028*[#  11]+0.028*[#  12]+0.028*[#  13]
          +0.020*[#  24]+0.020*[#  25]+0.020*[#  26]+0.014*[#   5]+0.014*[#   8]
          +0.007*[#  18]+0.007*[#  21]+0.001*[#  23]
    |psi|^2 = 0.999
==== e(  11) =     5.53317 eV ==== 
     psi = 0.149*[#   5]+0.149*[#   8]+0.117*[#   6]+0.117*[#   7]+0.117*[#   9]
          +0.040*[#  28]+0.040*[#  29]+0.040*[#  30]+0.040*[#  32]+0.040*[#  33]
          +0.040*[#  34]+0.035*[#  23]+0.011*[#  24]+0.011*[#  25]+0.011*[#  26]
          +0.006*[#  19]+0.006*[#  20]+0.006*[#  22]+0.005*[#  11]+0.005*[#  12]
          +0.005*[#  13]+0.002*[#  27]+0.002*[#  31]+0.001*[#  14]
    |psi|^2 = 0.999
==== e(  12) =     6.14650 eV ==== 
     psi = 0.395*[#   5]+0.395*[#   8]+0.029*[#  28]+0.029*[#  29]+0.029*[#  30]
          +0.029*[#  32]+0.029*[#  33]+0.029*[#  34]+0.007*[#   6]+0.007*[#   7]
          +0.007*[#   9]+0.003*[#  24]+0.003*[#  25]+0.003*[#  26]
    |psi|^2 = 0.999
==== e(  13) =     6.24817 eV ==== 
     psi = 0.199*[#   6]+0.199*[#   7]+0.199*[#   9]+0.050*[#  10]+0.044*[#  28]
          +0.044*[#  29]+0.044*[#  30]+0.044*[#  32]+0.044*[#  33]+0.044*[#  34]
          +0.021*[#  24]+0.021*[#  25]+0.021*[#  26]+0.005*[#  27]+0.005*[#  31]
          +0.004*[#  18]+0.004*[#  21]+0.001*[#   1]
    |psi|^2 = 0.998
==== e(  14) =     6.38548 eV ==== 
     psi = 0.151*[#   6]+0.151*[#   7]+0.151*[#   9]+0.124*[#   5]+0.124*[#   8]
          +0.029*[#  28]+0.029*[#  29]+0.029*[#  30]+0.029*[#  32]+0.029*[#  33]
          +0.029*[#  34]+0.018*[#  11]+0.018*[#  12]+0.018*[#  13]+0.012*[#  19]
          +0.012*[#  20]+0.012*[#  22]+0.005*[#  10]+0.005*[#  23]+0.005*[#  18]
          +0.005*[#  21]+0.004*[#  27]+0.004*[#  31]+0.002*[#  24]+0.002*[#  25]
          +0.002*[#  26]
    |psi|^2 = 0.999
==== e(  15) =     7.69471 eV ==== 
     psi = 0.282*[#   6]+0.282*[#   7]+0.282*[#   9]+0.014*[#  28]+0.014*[#  29]
          +0.014*[#  30]+0.014*[#  32]+0.014*[#  33]+0.014*[#  34]+0.011*[#   5]
          +0.011*[#   8]+0.009*[#  19]+0.009*[#  20]+0.009*[#  22]+0.006*[#  18]
          +0.006*[#  21]+0.003*[#  11]+0.003*[#  12]+0.003*[#  13]
    |psi|^2 = 0.999
==== e(  16) =     7.74668 eV ==== 
     psi = 0.096*[#  19]+0.096*[#  20]+0.096*[#  22]+0.091*[#   5]+0.091*[#   8]
          +0.060*[#  28]+0.060*[#  29]+0.060*[#  30]+0.060*[#  32]+0.060*[#  33]
          +0.060*[#  34]+0.033*[#  23]+0.023*[#  11]+0.023*[#  12]+0.023*[#  13]
          +0.011*[#  27]+0.011*[#  31]+0.008*[#  24]+0.008*[#  25]+0.008*[#  26]
          +0.007*[#   6]+0.007*[#   7]+0.007*[#   9]
    |psi|^2 = 0.997
==== e(  17) =     8.24734 eV ==== 
     psi = 0.089*[#  28]+0.089*[#  29]+0.089*[#  30]+0.089*[#  32]+0.089*[#  33]
          +0.089*[#  34]+0.073*[#   6]+0.073*[#   7]+0.073*[#   9]+0.068*[#  10]
          +0.024*[#  11]+0.024*[#  12]+0.024*[#  13]+0.013*[#  18]+0.013*[#  21]
          +0.012*[#  19]+0.012*[#  20]+0.012*[#  22]+0.012*[#  23]+0.007*[#  27]
          +0.007*[#  31]+0.004*[#  24]+0.004*[#  25]+0.004*[#  26]+0.002*[#   1]
          
    |psi|^2 = 0.997
==== e(  18) =     9.21906 eV ==== 
     psi = 0.142*[#  19]+0.142*[#  20]+0.142*[#  22]+0.056*[#  28]+0.056*[#  29]
          +0.056*[#  30]+0.056*[#  32]+0.056*[#  33]+0.056*[#  34]+0.048*[#  18]
          +0.048*[#  21]+0.038*[#   6]+0.038*[#   7]+0.038*[#   9]+0.008*[#  11]
          +0.008*[#  12]+0.008*[#  13]+0.002*[#   5]+0.002*[#   8]
    |psi|^2 = 0.998
==== e(  19) =     9.31290 eV ==== 
     psi = 0.102*[#   6]+0.102*[#   7]+0.102*[#   9]+0.075*[#  28]+0.075*[#  29]
          +0.075*[#  30]+0.075*[#  32]+0.075*[#  33]+0.075*[#  34]+0.028*[#  24]
          +0.028*[#  25]+0.028*[#  26]+0.026*[#   5]+0.026*[#   8]+0.019*[#  23]
          +0.019*[#  10]+0.013*[#  27]+0.013*[#  31]+0.006*[#  19]+0.006*[#  20]
          +0.006*[#  22]+0.004*[#  11]+0.004*[#  12]+0.004*[#  13]+0.003*[#  18]
          +0.003*[#  21]
    |psi|^2 = 0.998
==== e(  20) =    10.48896 eV ==== 
     psi = 0.191*[#  19]+0.191*[#  20]+0.191*[#  22]+0.047*[#  28]+0.047*[#  29]
          +0.047*[#  30]+0.047*[#  32]+0.047*[#  33]+0.047*[#  34]+0.043*[#  23]
          +0.020*[#  18]+0.020*[#  21]+0.010*[#  27]+0.010*[#  31]+0.008*[#   5]
          +0.008*[#   8]+0.005*[#  11]+0.005*[#  12]+0.005*[#  13]+0.002*[#   6]
          +0.002*[#   7]+0.002*[#   9]
    |psi|^2 = 0.994
==== e(  21) =    10.90150 eV ==== 
     psi = 0.133*[#  19]+0.133*[#  20]+0.133*[#  22]+0.077*[#  28]+0.077*[#  29]
          +0.077*[#  30]+0.077*[#  32]+0.077*[#  33]+0.077*[#  34]+0.039*[#   5]
          +0.039*[#   8]+0.011*[#  18]+0.011*[#  21]+0.006*[#  11]+0.006*[#  12]
          +0.006*[#  13]+0.004*[#  24]+0.004*[#  25]+0.004*[#  26]
    |psi|^2 = 0.998
==== e(  22) =    11.13563 eV ==== 
     psi = 0.114*[#  28]+0.114*[#  29]+0.114*[#  30]+0.114*[#  32]+0.114*[#  33]
          +0.114*[#  34]+0.077*[#   5]+0.077*[#   8]+0.020*[#  18]+0.020*[#  21]
          +0.013*[#  27]+0.013*[#  31]+0.012*[#   6]+0.012*[#   7]+0.012*[#   9]
          +0.010*[#  10]+0.008*[#  24]+0.008*[#  25]+0.008*[#  26]+0.007*[#  23]
          +0.004*[#  11]+0.004*[#  12]+0.004*[#  13]
    |psi|^2 = 0.996
==== e(  23) =    11.66701 eV ==== 
     psi = 0.119*[#  28]+0.119*[#  29]+0.119*[#  30]+0.119*[#  32]+0.119*[#  33]
          +0.119*[#  34]+0.051*[#   5]+0.051*[#   8]+0.038*[#  19]+0.038*[#  20]
          +0.038*[#  22]+0.013*[#  24]+0.013*[#  25]+0.013*[#  26]+0.005*[#   6]
          +0.005*[#   7]+0.005*[#   9]+0.004*[#  18]+0.004*[#  21]+0.001*[#  11]
          +0.001*[#  12]+0.001*[#  13]
    |psi|^2 = 0.998
==== e(  24) =    16.69775 eV ==== 
     psi = 0.312*[#  19]+0.312*[#  20]+0.312*[#  22]+0.007*[#  28]+0.007*[#  29]
          +0.007*[#  30]+0.007*[#  32]+0.007*[#  33]+0.007*[#  34]+0.003*[#  10]
          +0.002*[#  24]+0.002*[#  25]+0.002*[#  26]
    |psi|^2 = 0.990
==== e(  25) =    16.92175 eV ==== 
     psi = 0.346*[#  18]+0.346*[#  21]+0.066*[#  10]+0.041*[#  27]+0.041*[#  31]
          +0.013*[#  11]+0.013*[#  12]+0.013*[#  13]+0.012*[#  19]+0.012*[#  20]
          +0.012*[#  22]+0.009*[#  28]+0.009*[#  29]+0.009*[#  30]+0.009*[#  32]
          +0.009*[#  33]+0.009*[#  34]+0.007*[#  24]+0.007*[#  25]+0.007*[#  26]
          +0.006*[#  23]
    |psi|^2 = 0.997
==== e(  26) =    17.33584 eV ==== 
     psi = 0.428*[#  18]+0.428*[#  21]+0.016*[#  28]+0.016*[#  29]+0.016*[#  30]
          +0.016*[#  32]+0.016*[#  33]+0.016*[#  34]+0.009*[#  19]+0.009*[#  20]
          +0.009*[#  22]+0.005*[#  11]+0.005*[#  12]+0.005*[#  13]+0.001*[#   5]
          +0.001*[#   8]
    |psi|^2 = 0.997
==== e(  27) =    19.26507 eV ==== 
     psi = 0.092*[#  10]+0.089*[#  23]+0.073*[#  18]+0.073*[#  21]+0.065*[#  27]
          +0.065*[#  31]+0.048*[#  28]+0.048*[#  29]+0.048*[#  30]+0.048*[#  32]
          +0.048*[#  33]+0.048*[#  34]+0.044*[#  24]+0.044*[#  25]+0.044*[#  26]
          +0.035*[#  11]+0.035*[#  12]+0.035*[#  13]+0.002*[#   5]+0.002*[#   8]
          +0.001*[#  14]
    |psi|^2 = 0.991
==== e(  28) =    21.93948 eV ==== 
     psi = 0.158*[#  10]+0.147*[#  23]+0.099*[#  11]+0.099*[#  12]+0.099*[#  13]
          +0.074*[#  24]+0.074*[#  25]+0.074*[#  26]+0.046*[#  27]+0.046*[#  31]
          +0.004*[#  19]+0.004*[#  20]+0.004*[#  22]+0.003*[#   1]+0.001*[#  14]
          
    |psi|^2 = 0.938
==== e(  29) =    22.55831 eV ==== 
     psi = 0.264*[#  10]+0.232*[#  23]+0.040*[#  28]+0.040*[#  29]+0.040*[#  30]
          +0.040*[#  32]+0.040*[#  33]+0.040*[#  34]+0.032*[#  24]+0.032*[#  25]
          +0.032*[#  26]+0.029*[#  11]+0.029*[#  12]+0.029*[#  13]+0.010*[#  27]
          +0.010*[#  31]+0.006*[#  18]+0.006*[#  21]+0.002*[#   1]+0.002*[#  19]
          +0.002*[#  20]+0.002*[#  22]
    |psi|^2 = 0.963
==== e(  30) =    23.67608 eV ==== 
     psi = 0.125*[#  11]+0.125*[#  12]+0.125*[#  13]+0.102*[#  24]+0.102*[#  25]
          +0.102*[#  26]+0.040*[#  28]+0.040*[#  29]+0.040*[#  30]+0.040*[#  32]
          +0.040*[#  33]+0.040*[#  34]+0.006*[#  19]+0.006*[#  20]+0.006*[#  22]
          +0.005*[#  23]
    |psi|^2 = 0.946
==== e(  31) =    24.88501 eV ==== 
     psi = 0.194*[#  23]+0.120*[#  10]+0.058*[#  24]+0.058*[#  25]+0.058*[#  26]
          +0.052*[#  11]+0.052*[#  12]+0.052*[#  13]+0.011*[#  28]+0.011*[#  29]
          +0.011*[#  30]+0.011*[#  32]+0.011*[#  33]+0.011*[#  34]+0.005*[#  14]
          +0.004*[#   1]+0.004*[#  27]+0.004*[#  31]+0.003*[#  19]+0.003*[#  20]
          +0.003*[#  22]+0.001*[#   6]+0.001*[#   7]+0.001*[#   9]
    |psi|^2 = 0.735
==== e(  32) =    26.48540 eV ==== 
     psi = 0.112*[#  23]+0.110*[#  24]+0.110*[#  25]+0.110*[#  26]+0.087*[#  11]
          +0.087*[#  12]+0.087*[#  13]+0.086*[#  10]+0.005*[#  14]+0.005*[#   1]
          +0.002*[#  27]+0.002*[#  31]+0.001*[#  19]+0.001*[#  20]+0.001*[#  22]
          +0.001*[#  28]+0.001*[#  29]+0.001*[#  30]+0.001*[#  32]+0.001*[#  33]
          +0.001*[#  34]
    |psi|^2 = 0.821
==== e(  33) =    28.37938 eV ==== 
     psi = 0.255*[#  11]+0.255*[#  12]+0.255*[#  13]+0.045*[#  24]+0.045*[#  25]
          +0.045*[#  26]+0.011*[#  28]+0.011*[#  29]+0.011*[#  30]+0.011*[#  32]
          +0.011*[#  33]+0.011*[#  34]
    |psi|^2 = 0.974
==== e(  34) =    28.98981 eV ==== 
     psi = 0.243*[#  24]+0.243*[#  25]+0.243*[#  26]+0.035*[#  11]+0.035*[#  12]
          +0.035*[#  13]+0.009*[#  28]+0.009*[#  29]+0.009*[#  30]+0.009*[#  32]
          +0.009*[#  33]+0.009*[#  34]
    |psi|^2 = 0.894
==== e(  35) =    31.51756 eV ==== 
     psi = 0.054*[#  24]+0.054*[#  25]+0.054*[#  26]+0.042*[#  11]+0.042*[#  12]
          +0.042*[#  13]+0.004*[#  28]+0.004*[#  29]+0.004*[#  30]+0.004*[#  32]
          +0.004*[#  33]+0.004*[#  34]+0.003*[#  23]+0.002*[#  10]+0.001*[#  19]
          +0.001*[#  20]+0.001*[#  22]
    |psi|^2 = 0.322
==== e(  36) =    32.76079 eV ==== 
     psi = 0.010*[#  11]+0.010*[#  12]+0.010*[#  13]+0.008*[#  24]+0.008*[#  25]
          +0.008*[#  26]+0.007*[#  27]+0.007*[#  31]
    |psi|^2 = 0.078
==== e(  37) =    36.54268 eV ==== 
 
    |psi|^2 = 0.002
==== e(  38) =    37.69701 eV ==== 
     psi = 0.008*[#  23]+0.007*[#  24]+0.007*[#  25]+0.007*[#  26]+0.006*[#  11]
          +0.006*[#  12]+0.006*[#  13]+0.006*[#  10]
    |psi|^2 = 0.059
==== e(  39) =    38.54680 eV ==== 
 
    |psi|^2 = 0.006
==== e(  40) =    40.54343 eV ==== 
     psi = 0.007*[#  24]+0.007*[#  25]+0.007*[#  26]+0.005*[#  11]+0.005*[#  12]
          +0.005*[#  13]+0.002*[#  28]+0.002*[#  29]+0.002*[#  30]+0.002*[#  32]
          +0.002*[#  33]+0.002*[#  34]
    |psi|^2 = 0.050

 k =  -0.7439034119  0.2472994604  0.2472994604
==== e(   1) =   -83.39653 eV ==== 
     psi = 0.987*[#   1]+0.002*[#  10]+0.002*[#  24]+0.002*[#  25]+0.002*[#  26]
          
    |psi|^2 = 1.000
==== e(   2) =   -79.83526 eV ==== 
     psi = 0.987*[#  14]+0.002*[#  11]+0.002*[#  12]+0.002*[#  13]+0.002*[#  23]
          
    |psi|^2 = 1.000
==== e(   3) =   -47.35297 eV ==== 
     psi = 0.333*[#   2]+0.333*[#   3]+0.333*[#   4]
    |psi|^2 = 1.000
==== e(   4) =   -46.51398 eV ==== 
     psi = 0.332*[#   2]+0.332*[#   3]+0.332*[#   4]
    |psi|^2 = 1.000
==== e(   5) =   -46.49378 eV ==== 
     psi = 0.332*[#   2]+0.332*[#   3]+0.332*[#   4]
    |psi|^2 = 1.000
==== e(   6) =   -43.55690 eV ==== 
     psi = 0.333*[#  15]+0.333*[#  16]+0.333*[#  17]
    |psi|^2 = 1.000
==== e(   7) =   -43.26892 eV ==== 
     psi = 0.332*[#  15]+0.332*[#  16]+0.332*[#  17]+0.001*[#  24]+0.001*[#  25]
          +0.001*[#  26]
    |psi|^2 = 1.000
==== e(   8) =   -43.24411 eV ==== 
     psi = 0.332*[#  15]+0.332*[#  16]+0.332*[#  17]
    |psi|^2 = 1.000
==== e(   9) =    -4.87235 eV ==== 
     psi = 0.389*[#  27]+0.389*[#  31]+0.051*[#  24]+0.051*[#  25]+0.051*[#  26]
          +0.026*[#   5]+0.026*[#   8]+0.015*[#  10]
    |psi|^2 = 0.999
==== e(  10) =    -4.65848 eV ==== 
     psi = 0.400*[#  27]+0.400*[#  31]+0.054*[#  11]+0.054*[#  12]+0.054*[#  13]
          +0.014*[#  23]+0.011*[#  18]+0.011*[#  21]
    |psi|^2 = 0.999
==== e(  11) =     5.60664 eV ==== 
     psi = 0.114*[#   6]+0.114*[#   7]+0.114*[#   9]+0.108*[#   5]+0.108*[#   8]
          +0.048*[#  28]+0.048*[#  29]+0.048*[#  30]+0.048*[#  32]+0.048*[#  33]
          +0.048*[#  34]+0.038*[#  24]+0.038*[#  25]+0.038*[#  26]+0.036*[#  10]
          +0.002*[#   1]
    |psi|^2 = 1.000
==== e(  12) =     5.93962 eV ==== 
     psi = 0.206*[#   6]+0.206*[#   7]+0.206*[#   9]+0.049*[#   5]+0.049*[#   8]
          +0.035*[#  10]+0.033*[#  28]+0.033*[#  29]+0.033*[#  30]+0.033*[#  32]
          +0.033*[#  33]+0.033*[#  34]+0.015*[#  24]+0.015*[#  25]+0.015*[#  26]
          +0.002*[#  27]+0.002*[#  31]
    |psi|^2 = 0.998
==== e(  13) =     6.11698 eV ==== 
     psi = 0.375*[#   5]+0.375*[#   8]+0.030*[#  28]+0.030*[#  29]+0.030*[#  30]
          +0.030*[#  32]+0.030*[#  33]+0.030*[#  34]+0.019*[#   6]+0.019*[#   7]
          +0.019*[#   9]+0.004*[#  24]+0.004*[#  25]+0.004*[#  26]
    |psi|^2 = 0.999
==== e(  14) =     6.46791 eV ==== 
     psi = 0.091*[#  23]+0.082*[#  28]+0.082*[#  29]+0.082*[#  30]+0.082*[#  32]
          +0.082*[#  33]+0.082*[#  34]+0.079*[#  19]+0.079*[#  20]+0.079*[#  22]
          +0.053*[#  11]+0.053*[#  12]+0.053*[#  13]+0.007*[#  18]+0.007*[#  21]
          +0.003*[#  14]+0.002*[#  27]+0.002*[#  31]
    |psi|^2 = 0.999
==== e(  15) =     6.93235 eV ==== 
     psi = 0.188*[#   5]+0.188*[#   8]+0.176*[#   6]+0.176*[#   7]+0.176*[#   9]
          +0.011*[#  28]+0.011*[#  29]+0.011*[#  30]+0.011*[#  32]+0.011*[#  33]
          +0.011*[#  34]+0.009*[#  27]+0.009*[#  31]+0.002*[#  10]+0.002*[#  24]
          +0.002*[#  25]+0.002*[#  26]
    |psi|^2 = 0.999
==== e(  16) =     8.05163 eV ==== 
     psi = 0.307*[#   6]+0.307*[#   7]+0.307*[#   9]+0.039*[#   5]+0.039*[#   8]
          
    |psi|^2 = 1.000
==== e(  17) =     8.67370 eV ==== 
     psi = 0.114*[#  28]+0.114*[#  29]+0.114*[#  30]+0.114*[#  32]+0.114*[#  33]
          +0.114*[#  34]+0.043*[#  11]+0.043*[#  12]+0.043*[#  13]+0.035*[#  19]
          +0.035*[#  20]+0.035*[#  22]+0.028*[#  18]+0.028*[#  21]+0.008*[#  23]
          +0.005*[#  27]+0.005*[#  31]
    |psi|^2 = 0.995
==== e(  18) =     8.78959 eV ==== 
     psi = 0.116*[#  19]+0.116*[#  20]+0.116*[#  22]+0.081*[#  28]+0.081*[#  29]
          +0.081*[#  30]+0.081*[#  32]+0.081*[#  33]+0.081*[#  34]+0.059*[#  18]
          +0.059*[#  21]+0.015*[#  11]+0.015*[#  12]+0.015*[#  13]
    |psi|^2 = 0.998
==== e(  19) =     9.14733 eV ==== 
     psi = 0.154*[#   6]+0.154*[#   7]+0.154*[#   9]+0.068*[#  10]+0.061*[#  28]
          +0.061*[#  29]+0.061*[#  30]+0.061*[#  32]+0.061*[#  33]+0.061*[#  34]
          +0.019*[#  24]+0.019*[#  25]+0.019*[#  26]+0.014*[#   5]+0.014*[#   8]
          +0.008*[#  27]+0.008*[#  31]+0.001*[#   1]
    |psi|^2 = 0.998
==== e(  20) =    10.44478 eV ==== 
     psi = 0.206*[#  19]+0.206*[#  20]+0.206*[#  22]+0.045*[#  28]+0.045*[#  29]
          +0.045*[#  30]+0.045*[#  32]+0.045*[#  33]+0.045*[#  34]+0.040*[#  23]
          +0.025*[#  18]+0.025*[#  21]+0.004*[#  27]+0.004*[#  31]+0.002*[#  11]
          +0.002*[#  12]+0.002*[#  13]
    |psi|^2 = 0.994
==== e(  21) =    11.00986 eV ==== 
     psi = 0.111*[#   5]+0.111*[#   8]+0.099*[#  28]+0.099*[#  29]+0.099*[#  30]
          +0.099*[#  32]+0.099*[#  33]+0.099*[#  34]+0.027*[#  24]+0.027*[#  25]
          +0.027*[#  26]+0.022*[#  27]+0.022*[#  31]+0.017*[#  10]+0.012*[#   6]
          +0.012*[#   7]+0.012*[#   9]
    |psi|^2 = 0.996
==== e(  22) =    11.17512 eV ==== 
     psi = 0.207*[#  19]+0.207*[#  20]+0.207*[#  22]+0.058*[#  28]+0.058*[#  29]
          +0.058*[#  30]+0.058*[#  32]+0.058*[#  33]+0.058*[#  34]+0.008*[#  11]
          +0.008*[#  12]+0.008*[#  13]+0.002*[#  18]+0.002*[#  21]
    |psi|^2 = 0.999
==== e(  23) =    11.55543 eV ==== 
     psi = 0.123*[#  28]+0.123*[#  29]+0.123*[#  30]+0.123*[#  32]+0.123*[#  33]
          +0.123*[#  34]+0.086*[#   5]+0.086*[#   8]+0.022*[#  24]+0.022*[#  25]
          +0.022*[#  26]+0.008*[#   6]+0.008*[#   7]+0.008*[#   9]
    |psi|^2 = 0.998
==== e(  24) =    16.71373 eV ==== 
     psi = 0.296*[#  19]+0.296*[#  20]+0.296*[#  22]+0.026*[#  18]+0.026*[#  21]
          +0.007*[#  11]+0.007*[#  12]+0.007*[#  13]+0.004*[#  27]+0.004*[#  31]
          +0.004*[#  28]+0.004*[#  29]+0.004*[#  30]+0.004*[#  32]+0.004*[#  33]
          +0.004*[#  34]
    |psi|^2 = 0.991
==== e(  25) =    17.30483 eV ==== 
     psi = 0.378*[#  18]+0.378*[#  21]+0.031*[#  19]+0.031*[#  20]+0.031*[#  22]
          +0.025*[#  27]+0.025*[#  31]+0.013*[#  11]+0.013*[#  12]+0.013*[#  13]
          +0.009*[#  28]+0.009*[#  29]+0.009*[#  30]+0.009*[#  32]+0.009*[#  33]
          +0.009*[#  34]
    |psi|^2 = 0.998
==== e(  26) =    17.31497 eV ==== 
     psi = 0.437*[#  18]+0.437*[#  21]+0.013*[#  28]+0.013*[#  29]+0.013*[#  30]
          +0.013*[#  32]+0.013*[#  33]+0.013*[#  34]+0.009*[#  19]+0.009*[#  20]
          +0.009*[#  22]+0.006*[#  11]+0.006*[#  12]+0.006*[#  13]
    |psi|^2 = 0.998
==== e(  27) =    20.55644 eV ==== 
     psi = 0.388*[#  10]+0.101*[#  24]+0.101*[#  25]+0.101*[#  26]+0.048*[#  27]
          +0.048*[#  31]+0.030*[#  28]+0.030*[#  29]+0.030*[#  30]+0.030*[#  32]
          +0.030*[#  33]+0.030*[#  34]+0.002*[#   5]+0.002*[#   8]
    |psi|^2 = 0.971
==== e(  28) =    21.06080 eV ==== 
     psi = 0.302*[#  23]+0.117*[#  11]+0.117*[#  12]+0.117*[#  13]+0.044*[#  27]
          +0.044*[#  31]+0.027*[#  28]+0.027*[#  29]+0.027*[#  30]+0.027*[#  32]
          +0.027*[#  33]+0.027*[#  34]+0.023*[#  18]+0.023*[#  21]+0.007*[#  19]
          +0.007*[#  20]+0.007*[#  22]
    |psi|^2 = 0.972
==== e(  29) =    22.95827 eV ==== 
     psi = 0.412*[#  10]+0.107*[#  24]+0.107*[#  25]+0.107*[#  26]+0.024*[#  28]
          +0.024*[#  29]+0.024*[#  30]+0.024*[#  32]+0.024*[#  33]+0.024*[#  34]
          +0.013*[#  27]+0.013*[#  31]+0.007*[#   1]+0.001*[#   6]+0.001*[#   7]
          +0.001*[#   9]
    |psi|^2 = 0.916
==== e(  30) =    23.32084 eV ==== 
     psi = 0.516*[#  23]+0.081*[#  11]+0.081*[#  12]+0.081*[#  13]+0.023*[#  28]
          +0.023*[#  29]+0.023*[#  30]+0.023*[#  32]+0.023*[#  33]+0.023*[#  34]
          +0.007*[#  14]+0.007*[#  27]+0.007*[#  31]+0.005*[#  19]+0.005*[#  20]
          +0.005*[#  22]+0.003*[#  18]+0.003*[#  21]
    |psi|^2 = 0.935
==== e(  31) =    24.54664 eV ==== 
     psi = 0.242*[#  11]+0.242*[#  12]+0.242*[#  13]+0.023*[#  28]+0.023*[#  29]
          +0.023*[#  30]+0.023*[#  32]+0.023*[#  33]+0.023*[#  34]+0.009*[#  23]
          +0.006*[#  19]+0.006*[#  20]+0.006*[#  22]+0.001*[#  14]
    |psi|^2 = 0.892
==== e(  32) =    24.75758 eV ==== 
     psi = 0.235*[#  24]+0.235*[#  25]+0.235*[#  26]+0.021*[#  28]+0.021*[#  29]
          +0.021*[#  30]+0.021*[#  32]+0.021*[#  33]+0.021*[#  34]+0.013*[#  10]
          +0.003*[#   6]+0.003*[#   7]+0.003*[#   9]+0.002*[#   1]
    |psi|^2 = 0.851
==== e(  33) =    28.26689 eV ==== 
     psi = 0.289*[#  11]+0.289*[#  12]+0.289*[#  13]+0.013*[#  28]+0.013*[#  29]
          +0.013*[#  30]+0.013*[#  32]+0.013*[#  33]+0.013*[#  34]+0.001*[#  18]
          +0.001*[#  21]
    |psi|^2 = 0.952
==== e(  34) =    28.71555 eV ==== 
     psi = 0.290*[#  24]+0.290*[#  25]+0.290*[#  26]+0.012*[#  28]+0.012*[#  29]
          +0.012*[#  30]+0.012*[#  32]+0.012*[#  33]+0.012*[#  34]
    |psi|^2 = 0.944
==== e(  35) =    31.83148 eV ==== 
     psi = 0.054*[#  24]+0.054*[#  25]+0.054*[#  26]+0.006*[#  27]+0.006*[#  31]
          +0.004*[#  28]+0.004*[#  29]+0.004*[#  30]+0.004*[#  32]+0.004*[#  33]
          +0.004*[#  34]+0.003*[#  10]
    |psi|^2 = 0.199
==== e(  36) =    32.01111 eV ==== 
     psi = 0.040*[#  11]+0.040*[#  12]+0.040*[#  13]+0.005*[#  23]+0.004*[#  27]
          +0.004*[#  31]+0.003*[#  28]+0.003*[#  29]+0.003*[#  30]+0.003*[#  32]
          +0.003*[#  33]+0.003*[#  34]+0.002*[#  19]+0.002*[#  20]+0.002*[#  22]
          
    |psi|^2 = 0.159
==== e(  37) =    38.71642 eV ==== 
     psi = 0.006*[#  24]+0.006*[#  25]+0.006*[#  26]
    |psi|^2 = 0.022
==== e(  38) =    38.87016 eV ==== 
     psi = 0.007*[#  11]+0.007*[#  12]+0.007*[#  13]
    |psi|^2 = 0.025
==== e(  39) =    40.57911 eV ==== 
     psi = 0.005*[#  11]+0.005*[#  12]+0.005*[#  13]+0.002*[#  27]+0.002*[#  31]
          
    |psi|^2 = 0.022
==== e(  40) =    40.69653 eV ==== 
     psi = 0.005*[#  24]+0.005*[#  25]+0.005*[#  26]+0.001*[#  27]+0.001*[#  31]
          
    |psi|^2 = 0.024

 k =   0.1655346505  0.1655346505 -0.1648663069
==== e(   1) =   -83.39788 eV ==== 
     psi = 0.975*[#   1]+0.005*[#  11]+0.005*[#  12]+0.005*[#  13]+0.002*[#  24]
          +0.002*[#  25]+0.002*[#  26]
    |psi|^2 = 1.000
==== e(   2) =   -79.83738 eV ==== 
     psi = 0.975*[#  14]+0.005*[#  24]+0.005*[#  25]+0.005*[#  26]+0.002*[#  11]
          +0.002*[#  12]+0.002*[#  13]
    |psi|^2 = 1.000
==== e(   3) =   -47.35560 eV ==== 
     psi = 0.331*[#   2]+0.331*[#   3]+0.331*[#   4]+0.002*[#  24]+0.002*[#  25]
          +0.002*[#  26]
    |psi|^2 = 1.000
==== e(   4) =   -46.49358 eV ==== 
     psi = 0.332*[#   2]+0.332*[#   3]+0.332*[#   4]
    |psi|^2 = 1.000
==== e(   5) =   -46.48813 eV ==== 
     psi = 0.332*[#   2]+0.332*[#   3]+0.332*[#   4]+0.001*[#  11]+0.001*[#  12]
          +0.001*[#  13]
    |psi|^2 = 1.000
==== e(   6) =   -43.56021 eV ==== 
     psi = 0.331*[#  15]+0.331*[#  16]+0.331*[#  17]+0.002*[#  11]+0.002*[#  12]
          +0.002*[#  13]
    |psi|^2 = 1.000
==== e(   7) =   -43.24394 eV ==== 
     psi = 0.332*[#  15]+0.332*[#  16]+0.332*[#  17]
    |psi|^2 = 1.000
==== e(   8) =   -43.23757 eV ==== 
     psi = 0.332*[#  15]+0.332*[#  16]+0.332*[#  17]+0.001*[#  24]+0.001*[#  25]
          +0.001*[#  26]
    |psi|^2 = 1.000
==== e(   9) =    -5.76893 eV ==== 
     psi = 0.316*[#  27]+0.316*[#  31]+0.097*[#  10]+0.093*[#  23]+0.028*[#  11]
          +0.028*[#  12]+0.028*[#  13]+0.028*[#  24]+0.028*[#  25]+0.028*[#  26]
          +0.004*[#  14]+0.004*[#   1]
    |psi|^2 = 1.000
==== e(  10) =    -4.74089 eV ==== 
     psi = 0.380*[#  27]+0.380*[#  31]+0.036*[#  11]+0.036*[#  12]+0.036*[#  13]
          +0.035*[#  24]+0.035*[#  25]+0.035*[#  26]+0.007*[#   5]+0.007*[#   8]
          +0.003*[#  10]+0.003*[#  23]+0.002*[#  18]+0.002*[#  21]
    |psi|^2 = 0.999
==== e(  11) =     5.24139 eV ==== 
     psi = 0.198*[#   6]+0.198*[#   7]+0.198*[#   9]+0.046*[#  23]+0.044*[#  28]
          +0.044*[#  29]+0.044*[#  30]+0.044*[#  32]+0.044*[#  33]+0.044*[#  34]
          +0.037*[#  10]+0.009*[#  11]+0.009*[#  12]+0.009*[#  13]+0.007*[#  24]
          +0.007*[#  25]+0.007*[#  26]+0.003*[#  19]+0.003*[#  20]+0.003*[#  22]
          +0.001*[#  14]
    |psi|^2 = 0.999
==== e(  12) =     6.02033 eV ==== 
     psi = 0.348*[#   5]+0.348*[#   8]+0.033*[#  28]+0.033*[#  29]+0.033*[#  30]
          +0.033*[#  32]+0.033*[#  33]+0.033*[#  34]+0.023*[#   6]+0.023*[#   7]
          +0.023*[#   9]+0.005*[#  24]+0.005*[#  25]+0.005*[#  26]+0.004*[#  11]
          +0.004*[#  12]+0.004*[#  13]+0.002*[#  19]+0.002*[#  20]+0.002*[#  22]
          
    |psi|^2 = 0.999
==== e(  13) =     6.11085 eV ==== 
     psi = 0.404*[#   5]+0.404*[#   8]+0.028*[#  28]+0.028*[#  29]+0.028*[#  30]
          +0.028*[#  32]+0.028*[#  33]+0.028*[#  34]+0.003*[#   6]+0.003*[#   7]
          +0.003*[#   9]+0.003*[#  19]+0.003*[#  20]+0.003*[#  22]
    |psi|^2 = 0.999
==== e(  14) =     7.13825 eV ==== 
     psi = 0.257*[#   6]+0.257*[#   7]+0.257*[#   9]+0.033*[#   5]+0.033*[#   8]
          +0.015*[#  10]+0.015*[#  28]+0.015*[#  29]+0.015*[#  30]+0.015*[#  32]
          +0.015*[#  33]+0.015*[#  34]+0.012*[#  19]+0.012*[#  20]+0.012*[#  22]
          +0.004*[#  23]+0.003*[#  27]+0.003*[#  31]+0.001*[#  18]+0.001*[#  21]
          +0.001*[#  24]+0.001*[#  25]+0.001*[#  26]
    |psi|^2 = 0.997
==== e(  15) =     7.44525 eV ==== 
     psi = 0.302*[#   6]+0.302*[#   7]+0.302*[#   9]+0.008*[#  19]+0.008*[#  20]
          +0.008*[#  22]+0.007*[#  28]+0.007*[#  29]+0.007*[#  30]+0.007*[#  32]
          +0.007*[#  33]+0.007*[#  34]+0.006*[#   5]+0.006*[#   8]+0.004*[#  18]
          +0.004*[#  21]+0.001*[#  11]+0.001*[#  12]+0.001*[#  13]
    |psi|^2 = 0.998
==== e(  16) =     8.01859 eV ==== 
     psi = 0.126*[#   6]+0.126*[#   7]+0.126*[#   9]+0.075*[#  10]+0.068*[#  28]
          +0.068*[#  29]+0.068*[#  30]+0.068*[#  32]+0.068*[#  33]+0.068*[#  34]
          +0.039*[#  23]+0.012*[#   5]+0.012*[#   8]+0.010*[#  19]+0.010*[#  20]
          +0.010*[#  22]+0.007*[#  24]+0.007*[#  25]+0.007*[#  26]+0.005*[#  11]
          +0.005*[#  12]+0.005*[#  13]+0.004*[#  27]+0.004*[#  31]+0.001*[#   1]
          
    |psi|^2 = 0.999
==== e(  17) =     8.99506 eV ==== 
     psi = 0.158*[#  19]+0.158*[#  20]+0.158*[#  22]+0.052*[#  28]+0.052*[#  29]
          +0.052*[#  30]+0.052*[#  32]+0.052*[#  33]+0.052*[#  34]+0.038*[#  23]
          +0.030*[#   6]+0.030*[#   7]+0.030*[#   9]+0.018*[#   5]+0.018*[#   8]
          +0.012*[#  27]+0.012*[#  31]+0.012*[#  10]+0.003*[#  11]+0.003*[#  12]
          +0.003*[#  13]
    |psi|^2 = 0.995
==== e(  18) =     9.74716 eV ==== 
     psi = 0.272*[#  19]+0.272*[#  20]+0.272*[#  22]+0.023*[#  18]+0.023*[#  21]
          +0.013*[#   6]+0.013*[#   7]+0.013*[#   9]+0.012*[#   5]+0.012*[#   8]
          +0.011*[#  28]+0.011*[#  29]+0.011*[#  30]+0.011*[#  32]+0.011*[#  33]
          +0.011*[#  34]
    |psi|^2 = 0.996
==== e(  19) =    10.03111 eV ==== 
     psi = 0.120*[#  28]+0.120*[#  29]+0.120*[#  30]+0.120*[#  32]+0.120*[#  33]
          +0.120*[#  34]+0.051*[#  18]+0.051*[#  21]+0.022*[#   6]+0.022*[#   7]
          +0.022*[#   9]+0.016*[#   5]+0.016*[#   8]+0.013*[#  10]+0.011*[#  11]
          +0.011*[#  12]+0.011*[#  13]+0.008*[#  27]+0.008*[#  31]+0.005*[#  23]
          +0.002*[#  24]+0.002*[#  25]+0.002*[#  26]
    |psi|^2 = 0.996
==== e(  20) =    10.33775 eV ==== 
     psi = 0.141*[#  19]+0.141*[#  20]+0.141*[#  22]+0.068*[#  28]+0.068*[#  29]
          +0.068*[#  30]+0.068*[#  32]+0.068*[#  33]+0.068*[#  34]+0.037*[#  23]
          +0.028*[#  10]+0.025*[#  18]+0.025*[#  21]+0.020*[#  27]+0.020*[#  31]
          +0.002*[#   6]+0.002*[#   7]+0.002*[#   9]
    |psi|^2 = 0.995
==== e(  21) =    10.38053 eV ==== 
     psi = 0.123*[#  28]+0.123*[#  29]+0.123*[#  30]+0.123*[#  32]+0.123*[#  33]
          +0.123*[#  34]+0.047*[#  18]+0.047*[#  21]+0.021*[#  19]+0.021*[#  20]
          +0.021*[#  22]+0.019*[#   5]+0.019*[#   8]+0.014*[#   6]+0.014*[#   7]
          +0.014*[#   9]+0.007*[#  11]+0.007*[#  12]+0.007*[#  13]+0.001*[#  24]
          +0.001*[#  25]+0.001*[#  26]
    |psi|^2 = 0.996
==== e(  22) =    11.70644 eV ==== 
     psi = 0.133*[#  28]+0.133*[#  29]+0.133*[#  30]+0.133*[#  32]+0.133*[#  33]
          +0.133*[#  34]+0.063*[#   5]+0.063*[#   8]+0.011*[#  24]+0.011*[#  25]
          +0.011*[#  26]+0.005*[#   6]+0.005*[#   7]+0.005*[#   9]+0.004*[#  27]
          +0.004*[#  31]+0.004*[#  19]+0.004*[#  20]+0.004*[#  22]+0.002*[#  18]
          +0.002*[#  21]+0.001*[#  10]+0.001*[#  23]
    |psi|^2 = 0.996
==== e(  23) =    11.89527 eV ==== 
     psi = 0.131*[#  28]+0.131*[#  29]+0.131*[#  30]+0.131*[#  32]+0.131*[#  33]
          +0.131*[#  34]+0.057*[#   5]+0.057*[#   8]+0.018*[#  19]+0.018*[#  20]
          +0.018*[#  22]+0.008*[#  18]+0.008*[#  21]+0.008*[#  24]+0.008*[#  25]
          +0.008*[#  26]
    |psi|^2 = 0.997
==== e(  24) =    16.35476 eV ==== 
     psi = 0.151*[#  10]+0.110*[#  27]+0.110*[#  31]+0.103*[#  23]+0.071*[#  19]
          +0.071*[#  20]+0.071*[#  22]+0.032*[#  24]+0.032*[#  25]+0.032*[#  26]
          +0.022*[#  11]+0.022*[#  12]+0.022*[#  13]+0.021*[#  28]+0.021*[#  29]
          +0.021*[#  30]+0.021*[#  32]+0.021*[#  33]+0.021*[#  34]+0.003*[#  18]
          +0.003*[#  21]+0.002*[#   1]+0.002*[#  14]
    |psi|^2 = 0.992
==== e(  25) =    16.62929 eV ==== 
     psi = 0.237*[#  19]+0.237*[#  20]+0.237*[#  22]+0.048*[#  23]+0.031*[#  10]
          +0.030*[#  27]+0.030*[#  31]+0.015*[#  28]+0.015*[#  29]+0.015*[#  30]
          +0.015*[#  32]+0.015*[#  33]+0.015*[#  34]+0.012*[#  11]+0.012*[#  12]
          +0.012*[#  13]+0.003*[#  24]+0.003*[#  25]+0.003*[#  26]+0.002*[#  18]
          +0.002*[#  21]
    |psi|^2 = 0.991
==== e(  26) =    17.20006 eV ==== 
     psi = 0.387*[#  18]+0.387*[#  21]+0.018*[#  27]+0.018*[#  31]+0.015*[#  19]
          +0.015*[#  20]+0.015*[#  22]+0.014*[#  11]+0.014*[#  12]+0.014*[#  13]
          +0.014*[#  28]+0.014*[#  29]+0.014*[#  30]+0.014*[#  32]+0.014*[#  33]
          +0.014*[#  34]+0.004*[#  24]+0.004*[#  25]+0.004*[#  26]
    |psi|^2 = 0.995
==== e(  27) =    17.30668 eV ==== 
     psi = 0.413*[#  18]+0.413*[#  21]+0.020*[#  28]+0.020*[#  29]+0.020*[#  30]
          +0.020*[#  32]+0.020*[#  33]+0.020*[#  34]+0.010*[#  19]+0.010*[#  20]
          +0.010*[#  22]+0.005*[#  11]+0.005*[#  12]+0.005*[#  13]+0.002*[#   5]
          +0.002*[#   8]
    |psi|^2 = 0.997
==== e(  28) =    20.04774 eV ==== 
     psi = 0.097*[#  11]+0.097*[#  12]+0.097*[#  13]+0.090*[#  24]+0.090*[#  25]
          +0.090*[#  26]+0.075*[#  27]+0.075*[#  31]+0.025*[#  28]+0.025*[#  29]
          +0.025*[#  30]+0.025*[#  32]+0.025*[#  33]+0.025*[#  34]+0.022*[#  18]
          +0.022*[#  21]+0.021*[#  10]+0.019*[#  23]+0.002*[#   5]+0.002*[#   8]
          +0.001*[#  19]+0.001*[#  20]+0.001*[#  22]
    |psi|^2 = 0.952
==== e(  29) =    23.13992 eV ==== 
     psi = 0.360*[#  23]+0.339*[#  10]+0.034*[#  28]+0.034*[#  29]+0.034*[#  30]
          +0.034*[#  32]+0.034*[#  33]+0.034*[#  34]+0.009*[#  24]+0.009*[#  25]
          +0.009*[#  26]+0.007*[#  11]+0.007*[#  12]+0.007*[#  13]+0.003*[#   1]
          +0.002*[#  14]+0.002*[#  19]+0.002*[#  20]+0.002*[#  22]+0.001*[#  27]
          +0.001*[#  31]
    |psi|^2 = 0.963
==== e(  30) =    25.39223 eV ==== 
     psi = 0.155*[#  11]+0.155*[#  12]+0.155*[#  13]+0.113*[#  24]+0.113*[#  25]
          +0.113*[#  26]+0.022*[#  10]+0.010*[#  28]+0.010*[#  29]+0.010*[#  30]
          +0.010*[#  32]+0.010*[#  33]+0.010*[#  34]+0.008*[#  23]+0.004*[#  19]
          +0.004*[#  20]+0.004*[#  22]+0.002*[#   1]
    |psi|^2 = 0.909
==== e(  31) =    26.91509 eV ==== 
     psi = 0.091*[#  23]+0.069*[#  10]+0.058*[#  24]+0.058*[#  25]+0.058*[#  26]
          +0.033*[#  11]+0.033*[#  12]+0.033*[#  13]+0.005*[#  14]+0.004*[#   1]
          +0.003*[#  28]+0.003*[#  29]+0.003*[#  30]+0.003*[#  32]+0.003*[#  33]
          +0.003*[#  34]+0.003*[#  19]+0.003*[#  20]+0.003*[#  22]+0.002*[#  27]
          +0.002*[#  31]
    |psi|^2 = 0.478
==== e(  32) =    27.68651 eV ==== 
     psi = 0.167*[#  11]+0.167*[#  12]+0.167*[#  13]+0.128*[#  24]+0.128*[#  25]
          +0.128*[#  26]+0.007*[#  28]+0.007*[#  29]+0.007*[#  30]+0.007*[#  32]
          +0.007*[#  33]+0.007*[#  34]
    |psi|^2 = 0.932
==== e(  33) =    30.63062 eV ==== 
     psi = 0.103*[#  24]+0.103*[#  25]+0.103*[#  26]+0.092*[#  11]+0.092*[#  12]
          +0.092*[#  13]+0.002*[#  19]+0.002*[#  20]+0.002*[#  22]+0.002*[#  28]
          +0.002*[#  29]+0.002*[#  30]+0.002*[#  32]+0.002*[#  33]+0.002*[#  34]
          
    |psi|^2 = 0.612
==== e(  34) =    30.64003 eV ==== 
     psi = 0.108*[#  24]+0.108*[#  25]+0.108*[#  26]+0.082*[#  11]+0.082*[#  12]
          +0.082*[#  13]+0.002*[#  28]+0.002*[#  29]+0.002*[#  30]+0.002*[#  32]
          +0.002*[#  33]+0.002*[#  34]+0.001*[#  19]+0.001*[#  20]+0.001*[#  22]
          +0.001*[#  18]+0.001*[#  21]
    |psi|^2 = 0.592
==== e(  35) =    32.74701 eV ==== 
     psi = 0.070*[#  23]+0.054*[#  10]+0.038*[#  11]+0.038*[#  12]+0.038*[#  13]
          +0.037*[#  24]+0.037*[#  25]+0.037*[#  26]+0.004*[#  14]+0.004*[#   1]
          +0.002*[#  27]+0.002*[#  28]+0.002*[#  29]+0.002*[#  30]+0.002*[#  31]
          +0.002*[#  32]+0.002*[#  33]+0.002*[#  34]
    |psi|^2 = 0.376
==== e(  36) =    33.75490 eV ==== 
     psi = 0.023*[#  24]+0.023*[#  25]+0.023*[#  26]+0.009*[#  11]+0.009*[#  12]
          +0.009*[#  13]+0.004*[#  10]+0.003*[#  27]+0.003*[#  31]+0.002*[#  28]
          +0.002*[#  29]+0.002*[#  30]+0.002*[#  32]+0.002*[#  33]+0.002*[#  34]
          
    |psi|^2 = 0.120
==== e(  37) =    34.34236 eV ==== 
     psi = 0.046*[#  24]+0.046*[#  25]+0.046*[#  26]+0.039*[#  11]+0.039*[#  12]
          +0.039*[#  13]
    |psi|^2 = 0.263
==== e(  38) =    34.44825 eV ==== 
     psi = 0.039*[#  11]+0.039*[#  12]+0.039*[#  13]+0.037*[#  24]+0.037*[#  25]
          +0.037*[#  26]+0.001*[#  18]+0.001*[#  21]
    |psi|^2 = 0.238
==== e(  39) =    37.67067 eV ==== 
     psi = 0.009*[#  23]+0.001*[#  11]+0.001*[#  12]+0.001*[#  13]
    |psi|^2 = 0.018
==== e(  40) =    38.22768 eV ==== 
     psi = 0.018*[#  10]+0.016*[#  23]+0.012*[#  24]+0.012*[#  25]+0.012*[#  26]
          +0.010*[#  11]+0.010*[#  12]+0.010*[#  13]+0.001*[#   1]+0.001*[#  14]
          
    |psi|^2 = 0.105

 k =   0.4135024545  0.0831014970 -0.2472994604
==== e(   1) =   -83.39720 eV ==== 
     psi = 0.975*[#   1]+0.004*[#  11]+0.004*[#  12]+0.004*[#  13]+0.002*[#  24]
          +0.002*[#  25]+0.002*[#  26]+0.002*[#  10]
    |psi|^2 = 1.000
==== e(   2) =   -79.83633 eV ==== 
     psi = 0.975*[#  14]+0.004*[#  24]+0.004*[#  25]+0.004*[#  26]+0.002*[#  11]
          +0.002*[#  12]+0.002*[#  13]+0.001*[#  23]
    |psi|^2 = 1.000
==== e(   3) =   -47.35448 eV ==== 
     psi = 0.332*[#   2]+0.332*[#   3]+0.332*[#   4]
    |psi|^2 = 1.000
==== e(   4) =   -46.50273 eV ==== 
     psi = 0.332*[#   2]+0.332*[#   3]+0.332*[#   4]
    |psi|^2 = 1.000
==== e(   5) =   -46.49235 eV ==== 
     psi = 0.332*[#   2]+0.332*[#   3]+0.332*[#   4]
    |psi|^2 = 1.000
==== e(   6) =   -43.55868 eV ==== 
     psi = 0.332*[#  15]+0.332*[#  16]+0.332*[#  17]
    |psi|^2 = 1.000
==== e(   7) =   -43.25502 eV ==== 
     psi = 0.332*[#  15]+0.332*[#  16]+0.332*[#  17]
    |psi|^2 = 1.000
==== e(   8) =   -43.24240 eV ==== 
     psi = 0.332*[#  15]+0.332*[#  16]+0.332*[#  17]
    |psi|^2 = 1.000
==== e(   9) =    -5.32878 eV ==== 
     psi = 0.334*[#  27]+0.334*[#  31]+0.043*[#  10]+0.042*[#  23]+0.039*[#  11]
          +0.039*[#  12]+0.039*[#  13]+0.038*[#  24]+0.038*[#  25]+0.038*[#  26]
          +0.003*[#  14]+0.003*[#   1]+0.002*[#   5]+0.002*[#   8]
    |psi|^2 = 1.000
==== e(  10) =    -4.72104 eV ==== 
     psi = 0.398*[#  27]+0.398*[#  31]+0.026*[#  11]+0.026*[#  12]+0.026*[#  13]
          +0.026*[#  24]+0.026*[#  25]+0.026*[#  26]+0.014*[#   5]+0.014*[#   8]
          +0.006*[#  18]+0.006*[#  21]+0.004*[#  10]+0.002*[#  23]
    |psi|^2 = 0.999
==== e(  11) =     5.58086 eV ==== 
     psi = 0.138*[#   6]+0.138*[#   7]+0.138*[#   9]+0.123*[#   5]+0.123*[#   8]
          +0.040*[#  23]+0.039*[#  28]+0.039*[#  29]+0.039*[#  30]+0.039*[#  32]
          +0.039*[#  33]+0.039*[#  34]+0.009*[#  24]+0.009*[#  25]+0.009*[#  26]
          +0.006*[#  11]+0.006*[#  12]+0.006*[#  13]+0.004*[#  19]+0.004*[#  20]
          +0.004*[#  22]+0.001*[#  10]+0.001*[#  14]+0.001*[#  27]+0.001*[#  31]
          
    |psi|^2 = 0.999
==== e(  12) =     6.10095 eV ==== 
     psi = 0.315*[#   5]+0.315*[#   8]+0.035*[#  28]+0.035*[#  29]+0.035*[#  30]
          +0.035*[#  32]+0.035*[#  33]+0.035*[#  34]+0.032*[#   6]+0.032*[#   7]
          +0.032*[#   9]+0.009*[#  24]+0.009*[#  25]+0.009*[#  26]+0.007*[#  11]
          +0.007*[#  12]+0.007*[#  13]+0.003*[#  19]+0.003*[#  20]+0.003*[#  22]
          +0.002*[#  10]+0.002*[#  27]+0.002*[#  31]
    |psi|^2 = 0.999
==== e(  13) =     6.13286 eV ==== 
     psi = 0.198*[#   5]+0.198*[#   8]+0.123*[#   6]+0.123*[#   7]+0.123*[#   9]
          +0.028*[#  28]+0.028*[#  29]+0.028*[#  30]+0.028*[#  32]+0.028*[#  33]
          +0.028*[#  34]+0.010*[#  11]+0.010*[#  12]+0.010*[#  13]+0.007*[#  10]
          +0.004*[#  19]+0.004*[#  20]+0.004*[#  22]+0.002*[#  18]+0.002*[#  21]
          +0.002*[#  24]+0.002*[#  25]+0.002*[#  26]+0.002*[#  23]+0.002*[#  27]
          +0.002*[#  31]
    |psi|^2 = 0.999
==== e(  14) =     6.85752 eV ==== 
     psi = 0.228*[#   6]+0.228*[#   7]+0.228*[#   9]+0.064*[#   5]+0.064*[#   8]
          +0.020*[#  28]+0.020*[#  29]+0.020*[#  30]+0.020*[#  32]+0.020*[#  33]
          +0.020*[#  34]+0.007*[#  19]+0.007*[#  20]+0.007*[#  22]+0.005*[#  11]
          +0.005*[#  12]+0.005*[#  13]+0.004*[#  24]+0.004*[#  25]+0.004*[#  26]
          +0.003*[#  18]+0.003*[#  21]+0.003*[#  27]+0.003*[#  31]+0.003*[#  23]
          +0.002*[#  10]
    |psi|^2 = 0.998
==== e(  15) =     7.05450 eV ==== 
     psi = 0.143*[#   6]+0.143*[#   7]+0.143*[#   9]+0.066*[#  10]+0.052*[#  28]
          +0.052*[#  29]+0.052*[#  30]+0.052*[#  32]+0.052*[#  33]+0.052*[#  34]
          +0.036*[#   5]+0.036*[#   8]+0.016*[#  19]+0.016*[#  20]+0.016*[#  22]
          +0.012*[#  27]+0.012*[#  31]+0.011*[#  18]+0.011*[#  21]+0.006*[#  24]
          +0.006*[#  25]+0.006*[#  26]+0.002*[#  11]+0.002*[#  12]+0.002*[#  13]
          +0.001*[#   1]+0.001*[#  23]
    |psi|^2 = 0.998
==== e(  16) =     8.11304 eV ==== 
     psi = 0.122*[#   6]+0.122*[#   7]+0.122*[#   9]+0.054*[#  19]+0.054*[#  20]
          +0.054*[#  22]+0.048*[#  28]+0.048*[#  29]+0.048*[#  30]+0.048*[#  32]
          +0.048*[#  33]+0.048*[#  34]+0.031*[#  10]+0.029*[#   5]+0.029*[#   8]
          +0.012*[#  11]+0.012*[#  12]+0.012*[#  13]+0.010*[#  24]+0.010*[#  25]
          +0.010*[#  26]+0.008*[#  27]+0.008*[#  31]+0.006*[#  23]+0.002*[#  18]
          +0.002*[#  21]
    |psi|^2 = 0.997
==== e(  17) =     8.64096 eV ==== 
     psi = 0.082*[#  19]+0.082*[#  20]+0.082*[#  22]+0.076*[#  28]+0.076*[#  29]
          +0.076*[#  30]+0.076*[#  32]+0.076*[#  33]+0.076*[#  34]+0.052*[#   6]
          +0.052*[#   7]+0.052*[#   9]+0.018*[#  23]+0.018*[#  24]+0.018*[#  25]
          +0.018*[#  26]+0.017*[#  11]+0.017*[#  12]+0.017*[#  13]+0.011*[#  10]
          +0.002*[#  18]+0.002*[#  21]
    |psi|^2 = 0.998
==== e(  18) =     8.84690 eV ==== 
     psi = 0.092*[#   6]+0.092*[#   7]+0.092*[#   9]+0.067*[#  19]+0.067*[#  20]
          +0.067*[#  22]+0.053*[#  28]+0.053*[#  29]+0.053*[#  30]+0.053*[#  32]
          +0.053*[#  33]+0.053*[#  34]+0.028*[#   5]+0.028*[#   8]+0.027*[#  23]
          +0.022*[#  18]+0.022*[#  21]+0.018*[#  10]+0.014*[#  27]+0.014*[#  31]
          +0.006*[#  11]+0.006*[#  12]+0.006*[#  13]+0.003*[#  24]+0.003*[#  25]
          +0.003*[#  26]
    |psi|^2 = 0.998
==== e(  19) =     9.86705 eV ==== 
     psi = 0.082*[#  19]+0.082*[#  20]+0.082*[#  22]+0.079*[#  28]+0.079*[#  29]
          +0.079*[#  30]+0.079*[#  32]+0.079*[#  33]+0.079*[#  34]+0.040*[#   6]
          +0.040*[#   7]+0.040*[#   9]+0.038*[#  18]+0.038*[#  21]+0.012*[#  24]
          +0.012*[#  25]+0.012*[#  26]+0.008*[#   5]+0.008*[#   8]+0.007*[#  11]
          +0.007*[#  12]+0.007*[#  13]+0.002*[#  27]+0.002*[#  31]+0.001*[#  10]
          
    |psi|^2 = 0.997
==== e(  20) =    10.41107 eV ==== 
     psi = 0.106*[#  28]+0.106*[#  29]+0.106*[#  30]+0.106*[#  32]+0.106*[#  33]
          +0.106*[#  34]+0.057*[#   5]+0.057*[#   8]+0.035*[#  18]+0.035*[#  21]
          +0.029*[#  19]+0.029*[#  20]+0.029*[#  22]+0.027*[#  23]+0.008*[#   6]
          +0.008*[#   7]+0.008*[#   9]+0.008*[#  11]+0.008*[#  12]+0.008*[#  13]
          +0.003*[#  27]+0.003*[#  31]+0.003*[#  10]+0.002*[#  24]+0.002*[#  25]
          +0.002*[#  26]
    |psi|^2 = 0.996
==== e(  21) =    10.49621 eV ==== 
     psi = 0.226*[#  19]+0.226*[#  20]+0.226*[#  22]+0.031*[#  28]+0.031*[#  29]
          +0.031*[#  30]+0.031*[#  32]+0.031*[#  33]+0.031*[#  34]+0.025*[#  23]
          +0.012*[#  27]+0.012*[#  31]+0.011*[#  10]+0.010*[#   6]+0.010*[#   7]
          +0.010*[#   9]+0.007*[#  18]+0.007*[#  21]+0.006*[#   5]+0.006*[#   8]
          +0.003*[#  11]+0.003*[#  12]+0.003*[#  13]+0.002*[#  24]+0.002*[#  25]
          +0.002*[#  26]
    |psi|^2 = 0.997
==== e(  22) =    11.40989 eV ==== 
     psi = 0.120*[#  28]+0.120*[#  29]+0.120*[#  30]+0.120*[#  32]+0.120*[#  33]
          +0.120*[#  34]+0.055*[#   5]+0.055*[#   8]+0.024*[#  19]+0.024*[#  20]
          +0.024*[#  22]+0.012*[#  23]+0.009*[#  24]+0.009*[#  25]+0.009*[#  26]
          +0.009*[#  18]+0.009*[#  21]+0.007*[#   6]+0.007*[#   7]+0.007*[#   9]
          +0.004*[#  11]+0.004*[#  12]+0.004*[#  13]+0.003*[#  27]+0.003*[#  31]
          +0.001*[#  10]
    |psi|^2 = 0.997
==== e(  23) =    11.69919 eV ==== 
     psi = 0.111*[#  28]+0.111*[#  29]+0.111*[#  30]+0.111*[#  32]+0.111*[#  33]
          +0.111*[#  34]+0.059*[#   5]+0.059*[#   8]+0.051*[#  19]+0.051*[#  20]
          +0.051*[#  22]+0.007*[#  18]+0.007*[#  21]+0.006*[#  27]+0.006*[#  31]
          +0.005*[#  24]+0.005*[#  25]+0.005*[#  26]+0.003*[#  11]+0.003*[#  12]
          +0.003*[#  13]+0.002*[#  10]+0.001*[#   6]+0.001*[#   7]+0.001*[#   9]
          
    |psi|^2 = 0.996
==== e(  24) =    16.60342 eV ==== 
     psi = 0.249*[#  19]+0.249*[#  20]+0.249*[#  22]+0.065*[#  18]+0.065*[#  21]
          +0.027*[#  10]+0.012*[#  27]+0.012*[#  31]+0.008*[#  24]+0.008*[#  25]
          +0.008*[#  26]+0.005*[#  28]+0.005*[#  29]+0.005*[#  30]+0.005*[#  32]
          +0.005*[#  33]+0.005*[#  34]+0.002*[#  11]+0.002*[#  12]+0.002*[#  13]
          
    |psi|^2 = 0.990
==== e(  25) =    16.88984 eV ==== 
     psi = 0.274*[#  18]+0.274*[#  21]+0.071*[#  19]+0.071*[#  20]+0.071*[#  22]
          +0.060*[#  10]+0.025*[#  27]+0.025*[#  31]+0.013*[#  28]+0.013*[#  29]
          +0.013*[#  30]+0.013*[#  32]+0.013*[#  33]+0.013*[#  34]+0.006*[#  11]
          +0.006*[#  12]+0.006*[#  13]+0.006*[#  24]+0.006*[#  25]+0.006*[#  26]
          +0.004*[#  23]
    |psi|^2 = 0.996
==== e(  26) =    17.33021 eV ==== 
     psi = 0.412*[#  18]+0.412*[#  21]+0.015*[#  28]+0.015*[#  29]+0.015*[#  30]
          +0.015*[#  32]+0.015*[#  33]+0.015*[#  34]+0.010*[#  27]+0.010*[#  31]
          +0.010*[#  19]+0.010*[#  20]+0.010*[#  22]+0.008*[#  11]+0.008*[#  12]
          +0.008*[#  13]+0.002*[#  23]
    |psi|^2 = 0.997
==== e(  27) =    18.69395 eV ==== 
     psi = 0.089*[#  23]+0.085*[#  18]+0.085*[#  21]+0.075*[#  27]+0.075*[#  31]
          +0.065*[#  10]+0.044*[#  28]+0.044*[#  29]+0.044*[#  30]+0.044*[#  32]
          +0.044*[#  33]+0.044*[#  34]+0.043*[#  11]+0.043*[#  12]+0.043*[#  13]
          +0.038*[#  24]+0.038*[#  25]+0.038*[#  26]+0.002*[#  19]+0.002*[#  20]
          +0.002*[#  22]+0.002*[#  14]+0.001*[#   1]+0.002*[#   5]+0.002*[#   8]
          
    |psi|^2 = 0.993
==== e(  28) =    21.46363 eV ==== 
     psi = 0.140*[#  10]+0.130*[#  23]+0.067*[#  11]+0.067*[#  12]+0.067*[#  13]
          +0.058*[#  24]+0.058*[#  25]+0.058*[#  26]+0.040*[#  27]+0.040*[#  31]
          +0.037*[#  28]+0.037*[#  29]+0.037*[#  30]+0.037*[#  32]+0.037*[#  33]
          +0.037*[#  34]+0.010*[#  18]+0.010*[#  21]
    |psi|^2 = 0.969
==== e(  29) =    22.99873 eV ==== 
     psi = 0.261*[#  10]+0.248*[#  23]+0.053*[#  11]+0.053*[#  12]+0.053*[#  13]
          +0.045*[#  24]+0.045*[#  25]+0.045*[#  26]+0.020*[#  28]+0.020*[#  29]
          +0.020*[#  30]+0.020*[#  32]+0.020*[#  33]+0.020*[#  34]+0.009*[#  27]
          +0.009*[#  31]+0.004*[#   1]+0.003*[#  18]+0.003*[#  21]+0.003*[#  14]
          
    |psi|^2 = 0.959
==== e(  30) =    24.21825 eV ==== 
     psi = 0.127*[#  11]+0.127*[#  12]+0.127*[#  13]+0.100*[#  24]+0.100*[#  25]
          +0.100*[#  26]+0.025*[#  28]+0.025*[#  29]+0.025*[#  30]+0.025*[#  32]
          +0.025*[#  33]+0.025*[#  34]+0.012*[#  10]+0.009*[#  19]+0.009*[#  20]
          +0.009*[#  22]+0.001*[#   6]+0.001*[#   7]+0.001*[#   9]
    |psi|^2 = 0.876
==== e(  31) =    25.24470 eV ==== 
     psi = 0.106*[#  23]+0.079*[#  11]+0.079*[#  12]+0.079*[#  13]+0.072*[#  24]
          +0.072*[#  25]+0.072*[#  26]+0.064*[#  10]+0.009*[#  28]+0.009*[#  29]
          +0.009*[#  30]+0.009*[#  32]+0.009*[#  33]+0.009*[#  34]+0.004*[#  19]
          +0.004*[#  20]+0.004*[#  22]+0.003*[#  14]+0.003*[#   1]+0.002*[#  27]
          +0.002*[#  31]+0.001*[#   6]+0.001*[#   7]+0.001*[#   9]
    |psi|^2 = 0.706
==== e(  32) =    27.03917 eV ==== 
     psi = 0.171*[#  23]+0.139*[#  10]+0.091*[#  11]+0.091*[#  12]+0.091*[#  13]
          +0.075*[#  24]+0.075*[#  25]+0.075*[#  26]+0.007*[#  14]+0.007*[#   1]
          +0.005*[#  27]+0.005*[#  31]+0.004*[#  28]+0.004*[#  29]+0.004*[#  30]
          +0.004*[#  32]+0.004*[#  33]+0.004*[#  34]+0.001*[#  18]+0.001*[#  21]
          
    |psi|^2 = 0.864
==== e(  33) =    27.71665 eV ==== 
     psi = 0.163*[#  24]+0.163*[#  25]+0.163*[#  26]+0.130*[#  11]+0.130*[#  12]
          +0.130*[#  13]+0.011*[#  27]+0.011*[#  31]+0.010*[#  23]+0.009*[#  28]
          +0.009*[#  29]+0.009*[#  30]+0.009*[#  32]+0.009*[#  33]+0.009*[#  34]
          
    |psi|^2 = 0.969
==== e(  34) =    29.39331 eV ==== 
     psi = 0.153*[#  24]+0.153*[#  25]+0.153*[#  26]+0.134*[#  11]+0.134*[#  12]
          +0.134*[#  13]+0.003*[#  28]+0.003*[#  29]+0.003*[#  30]+0.003*[#  32]
          +0.003*[#  33]+0.003*[#  34]+0.001*[#  18]+0.001*[#  21]
    |psi|^2 = 0.890
==== e(  35) =    32.12231 eV ==== 
     psi = 0.036*[#  24]+0.036*[#  25]+0.036*[#  26]+0.026*[#  11]+0.026*[#  12]
          +0.026*[#  13]+0.002*[#  28]+0.002*[#  29]+0.002*[#  30]+0.002*[#  32]
          +0.002*[#  33]+0.002*[#  34]+0.001*[#  19]+0.001*[#  20]+0.001*[#  22]
          
    |psi|^2 = 0.207
==== e(  36) =    33.43811 eV ==== 
     psi = 0.016*[#  24]+0.016*[#  25]+0.016*[#  26]+0.011*[#  11]+0.011*[#  12]
          +0.011*[#  13]+0.003*[#  28]+0.003*[#  29]+0.003*[#  30]+0.003*[#  32]
          +0.003*[#  33]+0.003*[#  34]
    |psi|^2 = 0.105
==== e(  37) =    36.08262 eV ==== 
     psi = 0.011*[#  11]+0.011*[#  12]+0.011*[#  13]+0.008*[#  24]+0.008*[#  25]
          +0.008*[#  26]+0.004*[#  23]+0.001*[#  27]+0.001*[#  31]+0.001*[#  28]
          +0.001*[#  29]+0.001*[#  30]+0.001*[#  32]+0.001*[#  33]+0.001*[#  34]
          
    |psi|^2 = 0.073
==== e(  38) =    36.20444 eV ==== 
     psi = 0.014*[#  24]+0.014*[#  25]+0.014*[#  26]+0.008*[#  11]+0.008*[#  12]
          +0.008*[#  13]+0.004*[#  10]+0.003*[#  23]+0.001*[#  28]+0.001*[#  29]
          +0.001*[#  30]+0.001*[#  32]+0.001*[#  33]+0.001*[#  34]+0.001*[#  27]
          +0.001*[#  31]
    |psi|^2 = 0.086
==== e(  39) =    37.39128 eV ==== 
     psi = 0.003*[#  24]+0.003*[#  25]+0.003*[#  26]+0.002*[#  11]+0.002*[#  12]
          +0.002*[#  13]
    |psi|^2 = 0.019
==== e(  40) =    41.61156 eV ==== 
     psi = 0.003*[#  11]+0.003*[#  12]+0.003*[#  13]+0.003*[#  24]+0.003*[#  25]
          +0.003*[#  26]+0.002*[#  23]
    |psi|^2 = 0.026

 k =  -0.8263365654  0.4952672644  0.1648663069
==== e(   1) =   -83.39647 eV ==== 
     psi = 0.986*[#   1]+0.003*[#  10]+0.002*[#  24]+0.002*[#  25]+0.002*[#  26]
          
    |psi|^2 = 1.000
==== e(   2) =   -79.83528 eV ==== 
     psi = 0.986*[#  14]+0.002*[#  23]+0.002*[#  11]+0.002*[#  12]+0.002*[#  13]
          
    |psi|^2 = 1.000
==== e(   3) =   -47.35301 eV ==== 
     psi = 0.332*[#   2]+0.332*[#   3]+0.332*[#   4]
    |psi|^2 = 1.000
==== e(   4) =   -46.51072 eV ==== 
     psi = 0.332*[#   2]+0.332*[#   3]+0.332*[#   4]
    |psi|^2 = 1.000
==== e(   5) =   -46.49717 eV ==== 
     psi = 0.332*[#   2]+0.332*[#   3]+0.332*[#   4]
    |psi|^2 = 1.000
==== e(   6) =   -43.55682 eV ==== 
     psi = 0.332*[#  15]+0.332*[#  16]+0.332*[#  17]
    |psi|^2 = 1.000
==== e(   7) =   -43.26478 eV ==== 
     psi = 0.332*[#  15]+0.332*[#  16]+0.332*[#  17]
    |psi|^2 = 1.000
==== e(   8) =   -43.24821 eV ==== 
     psi = 0.332*[#  15]+0.332*[#  16]+0.332*[#  17]
    |psi|^2 = 1.000
==== e(   9) =    -4.88036 eV ==== 
     psi = 0.382*[#  27]+0.382*[#  31]+0.037*[#  24]+0.037*[#  25]+0.037*[#  26]
          +0.020*[#  11]+0.020*[#  12]+0.020*[#  13]+0.017*[#   5]+0.017*[#   8]
          +0.011*[#  10]+0.010*[#  23]+0.002*[#  18]+0.002*[#  21]
    |psi|^2 = 0.999
==== e(  10) =    -4.65409 eV ==== 
     psi = 0.404*[#  27]+0.404*[#  31]+0.035*[#  11]+0.035*[#  12]+0.035*[#  13]
          +0.016*[#  24]+0.016*[#  25]+0.016*[#  26]+0.010*[#   5]+0.010*[#   8]
          +0.008*[#  18]+0.008*[#  21]+0.001*[#  10]+0.001*[#  23]
    |psi|^2 = 0.999
==== e(  11) =     5.63413 eV ==== 
     psi = 0.179*[#   5]+0.179*[#   8]+0.080*[#   6]+0.080*[#   7]+0.080*[#   9]
          +0.045*[#  28]+0.045*[#  29]+0.045*[#  30]+0.045*[#  32]+0.045*[#  33]
          +0.045*[#  34]+0.022*[#  23]+0.020*[#  24]+0.020*[#  25]+0.020*[#  26]
          +0.013*[#  10]+0.006*[#  19]+0.006*[#  20]+0.006*[#  22]+0.004*[#  11]
          +0.004*[#  12]+0.004*[#  13]+0.001*[#  14]
    |psi|^2 = 0.999
==== e(  12) =     6.00639 eV ==== 
     psi = 0.158*[#   5]+0.158*[#   8]+0.094*[#   6]+0.094*[#   7]+0.094*[#   9]
          +0.045*[#  28]+0.045*[#  29]+0.045*[#  30]+0.045*[#  32]+0.045*[#  33]
          +0.045*[#  34]+0.024*[#  23]+0.017*[#  10]+0.010*[#  24]+0.010*[#  25]
          +0.010*[#  26]+0.009*[#  19]+0.009*[#  20]+0.009*[#  22]+0.009*[#  11]
          +0.009*[#  12]+0.009*[#  13]+0.001*[#  18]+0.001*[#  21]
    |psi|^2 = 0.999
==== e(  13) =     6.14892 eV ==== 
     psi = 0.143*[#   6]+0.143*[#   7]+0.143*[#   9]+0.103*[#   5]+0.103*[#   8]
          +0.041*[#  28]+0.041*[#  29]+0.041*[#  30]+0.041*[#  32]+0.041*[#  33]
          +0.041*[#  34]+0.021*[#  10]+0.017*[#  24]+0.017*[#  25]+0.017*[#  26]
          +0.012*[#  11]+0.012*[#  12]+0.012*[#  13]+0.003*[#  23]+0.002*[#  19]
          +0.002*[#  20]+0.002*[#  22]+0.001*[#  27]+0.001*[#  31]
    |psi|^2 = 0.999
==== e(  14) =     6.53117 eV ==== 
     psi = 0.159*[#   5]+0.159*[#   8]+0.151*[#   6]+0.151*[#   7]+0.151*[#   9]
          +0.022*[#  28]+0.022*[#  29]+0.022*[#  30]+0.022*[#  32]+0.022*[#  33]
          +0.022*[#  34]+0.014*[#  19]+0.014*[#  20]+0.014*[#  22]+0.008*[#  11]
          +0.008*[#  12]+0.008*[#  13]+0.006*[#  18]+0.006*[#  21]+0.005*[#  27]
          +0.005*[#  31]+0.003*[#  24]+0.003*[#  25]+0.003*[#  26]+0.001*[#  23]
          
    |psi|^2 = 0.999
==== e(  15) =     7.22494 eV ==== 
     psi = 0.112*[#   5]+0.112*[#   8]+0.098*[#   6]+0.098*[#   7]+0.098*[#   9]
          +0.049*[#  28]+0.049*[#  29]+0.049*[#  30]+0.049*[#  32]+0.049*[#  33]
          +0.049*[#  34]+0.024*[#  10]+0.019*[#  11]+0.019*[#  12]+0.019*[#  13]
          +0.015*[#  18]+0.015*[#  21]+0.013*[#  19]+0.013*[#  20]+0.013*[#  22]
          +0.011*[#  27]+0.011*[#  31]+0.009*[#  23]
    |psi|^2 = 0.999
==== e(  16) =     7.46404 eV ==== 
     psi = 0.085*[#   6]+0.085*[#   7]+0.085*[#   9]+0.079*[#  19]+0.079*[#  20]
          +0.079*[#  22]+0.052*[#  28]+0.052*[#  29]+0.052*[#  30]+0.052*[#  32]
          +0.052*[#  33]+0.052*[#  34]+0.030*[#   5]+0.030*[#   8]+0.019*[#  11]
          +0.019*[#  12]+0.019*[#  13]+0.016*[#  24]+0.016*[#  25]+0.016*[#  26]
          +0.013*[#  23]+0.004*[#  10]+0.003*[#  27]+0.003*[#  31]+0.002*[#  18]
          +0.002*[#  21]
    |psi|^2 = 0.998
==== e(  17) =     8.31771 eV ==== 
     psi = 0.146*[#   6]+0.146*[#   7]+0.146*[#   9]+0.051*[#  19]+0.051*[#  20]
          +0.051*[#  22]+0.045*[#  28]+0.045*[#  29]+0.045*[#  30]+0.045*[#  32]
          +0.045*[#  33]+0.045*[#  34]+0.031*[#  10]+0.020*[#  18]+0.020*[#  21]
          +0.013*[#   5]+0.013*[#   8]+0.008*[#  24]+0.008*[#  25]+0.008*[#  26]
          +0.004*[#  11]+0.004*[#  12]+0.004*[#  13]+0.003*[#  27]+0.003*[#  31]
          +0.002*[#  23]
    |psi|^2 = 0.999
==== e(  18) =     8.92726 eV ==== 
     psi = 0.089*[#   6]+0.089*[#   7]+0.089*[#   9]+0.085*[#  28]+0.085*[#  29]
          +0.085*[#  30]+0.085*[#  32]+0.085*[#  33]+0.085*[#  34]+0.030*[#  11]
          +0.030*[#  12]+0.030*[#  13]+0.023*[#  18]+0.023*[#  21]+0.017*[#  19]
          +0.017*[#  20]+0.017*[#  22]+0.007*[#  24]+0.007*[#  25]+0.007*[#  26]
          +0.004*[#  10]+0.003*[#  27]+0.003*[#  31]
    |psi|^2 = 0.998
==== e(  19) =     9.72421 eV ==== 
     psi = 0.091*[#   6]+0.091*[#   7]+0.091*[#   9]+0.078*[#  28]+0.078*[#  29]
          +0.078*[#  30]+0.078*[#  32]+0.078*[#  33]+0.078*[#  34]+0.048*[#  19]
          +0.048*[#  20]+0.048*[#  22]+0.022*[#  10]+0.013*[#  23]+0.012*[#  24]
          +0.012*[#  25]+0.012*[#  26]+0.011*[#  11]+0.011*[#  12]+0.011*[#  13]
          +0.003*[#   5]+0.003*[#   8]+0.001*[#  18]+0.001*[#  21]
    |psi|^2 = 0.998
==== e(  20) =    10.59892 eV ==== 
[...]
          +0.025*[#  21]+0.016*[#  24]+0.016*[#  25]+0.016*[#  26]+0.004*[#  27]
          +0.004*[#  31]+0.003*[#  23]
    |psi|^2 = 0.996
==== e(  19) =     9.67216 eV ==== 
     psi = 0.115*[#  28]+0.115*[#  29]+0.115*[#  30]+0.115*[#  32]+0.115*[#  33]
          +0.115*[#  34]+0.043*[#  10]+0.032*[#   5]+0.032*[#   8]+0.020*[#  19]
          +0.020*[#  20]+0.020*[#  22]+0.016*[#  18]+0.016*[#  21]+0.015*[#   6]
          +0.015*[#   7]+0.015*[#   9]+0.010*[#  11]+0.010*[#  12]+0.010*[#  13]
          +0.008*[#  27]+0.008*[#  31]+0.005*[#  24]+0.005*[#  25]+0.005*[#  26]
          
    |psi|^2 = 0.998
==== e(  20) =    10.54569 eV ==== 
     psi = 0.096*[#  28]+0.096*[#  29]+0.096*[#  30]+0.096*[#  32]+0.096*[#  33]
          +0.096*[#  34]+0.060*[#   6]+0.060*[#   7]+0.060*[#   9]+0.035*[#  18]
          +0.035*[#  21]+0.020*[#  19]+0.020*[#  20]+0.020*[#  22]+0.019*[#   5]
          +0.019*[#   8]+0.015*[#  11]+0.015*[#  12]+0.015*[#  13]+0.006*[#  24]
          +0.006*[#  25]+0.006*[#  26]+0.003*[#  27]+0.003*[#  31]+0.003*[#  10]
          
    |psi|^2 = 0.997
==== e(  21) =    10.77408 eV ==== 
     psi = 0.149*[#   6]+0.149*[#   7]+0.149*[#   9]+0.059*[#  28]+0.059*[#  29]
          +0.059*[#  30]+0.059*[#  32]+0.059*[#  33]+0.059*[#  34]+0.047*[#  18]
          +0.047*[#  21]+0.017*[#  27]+0.017*[#  31]+0.008*[#  10]+0.008*[#  24]
          +0.008*[#  25]+0.008*[#  26]+0.006*[#  11]+0.006*[#  12]+0.006*[#  13]
          +0.005*[#   5]+0.005*[#   8]+0.002*[#  19]+0.002*[#  20]+0.002*[#  22]
          +0.001*[#   1]
    |psi|^2 = 0.996
==== e(  22) =    10.78001 eV ==== 
     psi = 0.105*[#  28]+0.105*[#  29]+0.105*[#  30]+0.105*[#  32]+0.105*[#  33]
          +0.105*[#  34]+0.079*[#   6]+0.079*[#   7]+0.079*[#   9]+0.020*[#  19]
          +0.020*[#  20]+0.020*[#  22]+0.011*[#  11]+0.011*[#  12]+0.011*[#  13]
          +0.007*[#  24]+0.007*[#  25]+0.007*[#  26]+0.006*[#  18]+0.006*[#  21]
          +0.005*[#  23]
    |psi|^2 = 0.997
==== e(  23) =    11.75490 eV ==== 
     psi = 0.116*[#  28]+0.116*[#  29]+0.116*[#  30]+0.116*[#  32]+0.116*[#  33]
          +0.116*[#  34]+0.067*[#  18]+0.067*[#  21]+0.036*[#   6]+0.036*[#   7]
          +0.036*[#   9]+0.015*[#  23]+0.008*[#  11]+0.008*[#  12]+0.008*[#  13]
          +0.003*[#   5]+0.003*[#   8]+0.002*[#  19]+0.002*[#  20]+0.002*[#  22]
          
    |psi|^2 = 0.996
==== e(  24) =    16.63586 eV ==== 
     psi = 0.304*[#   6]+0.304*[#   7]+0.304*[#   9]+0.010*[#  28]+0.010*[#  29]
          +0.010*[#  30]+0.010*[#  32]+0.010*[#  33]+0.010*[#  34]+0.001*[#  11]
          +0.001*[#  12]+0.001*[#  13]+0.001*[#  24]+0.001*[#  25]+0.001*[#  26]
          +0.001*[#  19]+0.001*[#  20]+0.001*[#  22]
    |psi|^2 = 0.986
==== e(  25) =    16.69077 eV ==== 
     psi = 0.360*[#   5]+0.360*[#   8]+0.069*[#  23]+0.046*[#  27]+0.046*[#  31]
          +0.016*[#  24]+0.016*[#  25]+0.016*[#  26]+0.008*[#  11]+0.008*[#  12]
          +0.008*[#  13]+0.007*[#   6]+0.007*[#   7]+0.007*[#   9]+0.003*[#  28]
          +0.003*[#  29]+0.003*[#  30]+0.003*[#  32]+0.003*[#  33]+0.003*[#  34]
          
    |psi|^2 = 0.995
==== e(  26) =    17.24988 eV ==== 
     psi = 0.410*[#   5]+0.410*[#   8]+0.015*[#  28]+0.015*[#  29]+0.015*[#  30]
          +0.015*[#  32]+0.015*[#  33]+0.015*[#  34]+0.010*[#  24]+0.010*[#  25]
          +0.010*[#  26]+0.009*[#   6]+0.009*[#   7]+0.009*[#   9]+0.009*[#  27]
          +0.009*[#  31]+0.002*[#  11]+0.002*[#  12]+0.002*[#  13]+0.001*[#  10]
          
    |psi|^2 = 0.996
==== e(  27) =    19.89250 eV ==== 
     psi = 0.239*[#  10]+0.069*[#  27]+0.069*[#  31]+0.050*[#  24]+0.050*[#  25]
          +0.050*[#  26]+0.048*[#  11]+0.048*[#  12]+0.048*[#  13]+0.046*[#  28]
          +0.046*[#  29]+0.046*[#  30]+0.046*[#  32]+0.046*[#  33]+0.046*[#  34]
          +0.013*[#   5]+0.013*[#   8]+0.004*[#  18]+0.004*[#  21]+0.001*[#   1]
          +0.001*[#   6]+0.001*[#   7]+0.001*[#   9]
    |psi|^2 = 0.987
==== e(  28) =    20.02604 eV ==== 
     psi = 0.231*[#  23]+0.076*[#   5]+0.076*[#   8]+0.051*[#  28]+0.051*[#  29]
          +0.051*[#  30]+0.051*[#  32]+0.051*[#  33]+0.051*[#  34]+0.045*[#  27]
          +0.045*[#  31]+0.037*[#  11]+0.037*[#  12]+0.037*[#  13]+0.033*[#  24]
          +0.033*[#  25]+0.033*[#  26]+0.001*[#   6]+0.001*[#   7]+0.001*[#   9]
          
    |psi|^2 = 0.992
==== e(  29) =    24.11989 eV ==== 
     psi = 0.365*[#  23]+0.120*[#  24]+0.120*[#  25]+0.120*[#  26]+0.012*[#  14]
          +0.011*[#  28]+0.011*[#  29]+0.011*[#  30]+0.011*[#  32]+0.011*[#  33]
          +0.011*[#  34]+0.010*[#  11]+0.010*[#  12]+0.010*[#  13]+0.008*[#  27]
          +0.008*[#  31]+0.002*[#   6]+0.002*[#   7]+0.002*[#   9]
    |psi|^2 = 0.859
==== e(  30) =    24.52583 eV ==== 
     psi = 0.449*[#  10]+0.091*[#  11]+0.091*[#  12]+0.091*[#  13]+0.014*[#  24]
          +0.014*[#  25]+0.014*[#  26]+0.012*[#   1]+0.010*[#  28]+0.010*[#  29]
          +0.010*[#  30]+0.010*[#  32]+0.010*[#  33]+0.010*[#  34]+0.005*[#  27]
          +0.005*[#  31]+0.004*[#   6]+0.004*[#   7]+0.004*[#   9]
    |psi|^2 = 0.862
==== e(  31) =    25.35417 eV ==== 
     psi = 0.196*[#  24]+0.196*[#  25]+0.196*[#  26]+0.097*[#  10]+0.008*[#  28]
          +0.008*[#  29]+0.008*[#  30]+0.008*[#  32]+0.008*[#  33]+0.008*[#  34]
          +0.008*[#   6]+0.008*[#   7]+0.008*[#   9]+0.005*[#  11]+0.005*[#  12]
          +0.005*[#  13]+0.004*[#   1]+0.001*[#  19]+0.001*[#  20]+0.001*[#  22]
          
    |psi|^2 = 0.781
==== e(  32) =    25.39194 eV ==== 
     psi = 0.189*[#  11]+0.189*[#  12]+0.189*[#  13]+0.122*[#  23]+0.007*[#  28]
          +0.007*[#  29]+0.007*[#  30]+0.007*[#  32]+0.007*[#  33]+0.007*[#  34]
          +0.005*[#  14]+0.003*[#   6]+0.003*[#   7]+0.003*[#   9]+0.002*[#  27]
          +0.002*[#  31]+0.001*[#  24]+0.001*[#  25]+0.001*[#  26]
    |psi|^2 = 0.758
==== e(  33) =    28.63228 eV ==== 
     psi = 0.224*[#  24]+0.224*[#  25]+0.224*[#  26]+0.066*[#  11]+0.066*[#  12]
          +0.066*[#  13]+0.010*[#  28]+0.010*[#  29]+0.010*[#  30]+0.010*[#  32]
          +0.010*[#  33]+0.010*[#  34]+0.004*[#  10]+0.002*[#   5]+0.002*[#   8]
          
    |psi|^2 = 0.943
==== e(  34) =    28.92481 eV ==== 
     psi = 0.234*[#  11]+0.234*[#  12]+0.234*[#  13]+0.053*[#  24]+0.053*[#  25]
          +0.053*[#  26]+0.009*[#  28]+0.009*[#  29]+0.009*[#  30]+0.009*[#  32]
          +0.009*[#  33]+0.009*[#  34]+0.007*[#  23]+0.002*[#  27]+0.002*[#  31]
          
    |psi|^2 = 0.928
==== e(  35) =    31.44860 eV ==== 
     psi = 0.051*[#  24]+0.051*[#  25]+0.051*[#  26]+0.023*[#  11]+0.023*[#  12]
          +0.023*[#  13]+0.005*[#  28]+0.005*[#  29]+0.005*[#  30]+0.005*[#  32]
          +0.005*[#  33]+0.005*[#  34]+0.004*[#  10]+0.001*[#   6]+0.001*[#   7]
          +0.001*[#   9]
    |psi|^2 = 0.260
==== e(  36) =    31.46730 eV ==== 
     psi = 0.061*[#  11]+0.061*[#  12]+0.061*[#  13]+0.018*[#  24]+0.018*[#  25]
          +0.018*[#  26]+0.005*[#  28]+0.005*[#  29]+0.005*[#  30]+0.005*[#  32]
          +0.005*[#  33]+0.005*[#  34]
    |psi|^2 = 0.273
==== e(  37) =    38.60376 eV ==== 
 
    |psi|^2 = 0.006
==== e(  38) =    38.72875 eV ==== 
     psi = 0.001*[#  24]+0.001*[#  25]+0.001*[#  26]
    |psi|^2 = 0.008
==== e(  39) =    39.33594 eV ==== 
     psi = 0.008*[#  11]+0.008*[#  12]+0.008*[#  13]+0.008*[#  24]+0.008*[#  25]
          +0.008*[#  26]+0.003*[#  23]
    |psi|^2 = 0.058
==== e(  40) =    39.38430 eV ==== 
     psi = 0.008*[#  11]+0.008*[#  12]+0.008*[#  13]+0.005*[#  10]+0.005*[#  24]
          +0.005*[#  25]+0.005*[#  26]
    |psi|^2 = 0.051

 k =  -0.2493044911 -0.2493044911 -0.2493044911
==== e(   1) =   -83.39860 eV ==== 
     psi = 0.962*[#  14]+0.011*[#  11]+0.011*[#  12]+0.011*[#  13]
    |psi|^2 = 1.000
==== e(   2) =   -79.83780 eV ==== 
     psi = 0.961*[#   1]+0.012*[#  24]+0.012*[#  25]+0.012*[#  26]
    |psi|^2 = 1.000
==== e(   3) =   -47.35715 eV ==== 
     psi = 0.332*[#  15]+0.332*[#  16]+0.332*[#  17]+0.001*[#  10]
    |psi|^2 = 1.000
==== e(   4) =   -46.48720 eV ==== 
     psi = 0.331*[#  15]+0.331*[#  16]+0.331*[#  17]+0.002*[#  24]+0.002*[#  25]
          +0.002*[#  26]
    |psi|^2 = 1.000
==== e(   5) =   -46.48720 eV ==== 
     psi = 0.331*[#  15]+0.331*[#  16]+0.331*[#  17]+0.002*[#  24]+0.002*[#  25]
          +0.002*[#  26]
    |psi|^2 = 1.000
==== e(   6) =   -43.56207 eV ==== 
     psi = 0.332*[#   2]+0.332*[#   3]+0.332*[#   4]+0.001*[#  23]
    |psi|^2 = 1.000
==== e(   7) =   -43.23594 eV ==== 
     psi = 0.332*[#   2]+0.332*[#   3]+0.332*[#   4]+0.001*[#  11]+0.001*[#  12]
          +0.001*[#  13]
    |psi|^2 = 1.000
==== e(   8) =   -43.23594 eV ==== 
     psi = 0.332*[#   2]+0.332*[#   3]+0.332*[#   4]+0.001*[#  11]+0.001*[#  12]
          +0.001*[#  13]
    |psi|^2 = 1.000
==== e(   9) =    -5.46120 eV ==== 
     psi = 0.323*[#  27]+0.323*[#  31]+0.108*[#  23]+0.078*[#  11]+0.078*[#  12]
          +0.078*[#  13]+0.007*[#  14]
    |psi|^2 = 1.000
==== e(  10) =    -5.43584 eV ==== 
     psi = 0.325*[#  27]+0.325*[#  31]+0.103*[#  10]+0.079*[#  24]+0.079*[#  25]
          +0.079*[#  26]+0.007*[#   1]
    |psi|^2 = 1.000
==== e(  11) =     5.52979 eV ==== 
     psi = 0.267*[#  19]+0.267*[#  20]+0.267*[#  22]+0.042*[#  23]+0.024*[#  28]
          +0.024*[#  29]+0.024*[#  30]+0.024*[#  32]+0.024*[#  33]+0.024*[#  34]
          +0.006*[#  27]+0.006*[#  31]
    |psi|^2 = 0.999
==== e(  12) =     6.09013 eV ==== 
     psi = 0.395*[#  18]+0.395*[#  21]+0.026*[#  28]+0.026*[#  29]+0.026*[#  30]
          +0.026*[#  32]+0.026*[#  33]+0.026*[#  34]+0.018*[#  19]+0.018*[#  20]
          +0.018*[#  22]
    |psi|^2 = 0.999
==== e(  13) =     6.09013 eV ==== 
     psi = 0.395*[#  18]+0.395*[#  21]+0.026*[#  28]+0.026*[#  29]+0.026*[#  30]
          +0.026*[#  32]+0.026*[#  33]+0.026*[#  34]+0.018*[#  19]+0.018*[#  20]
          +0.018*[#  22]
    |psi|^2 = 0.999
==== e(  14) =     7.51621 eV ==== 
     psi = 0.308*[#  19]+0.308*[#  20]+0.308*[#  22]+0.036*[#  18]+0.036*[#  21]
          
    |psi|^2 = 0.999
==== e(  15) =     7.51621 eV ==== 
     psi = 0.308*[#  19]+0.308*[#  20]+0.308*[#  22]+0.036*[#  18]+0.036*[#  21]
          
    |psi|^2 = 0.999
==== e(  16) =     8.17556 eV ==== 
     psi = 0.179*[#  10]+0.117*[#  28]+0.117*[#  29]+0.117*[#  30]+0.117*[#  32]
          +0.117*[#  33]+0.117*[#  34]+0.030*[#  27]+0.030*[#  31]+0.016*[#   6]
          +0.016*[#   7]+0.016*[#   9]+0.003*[#   1]
    |psi|^2 = 0.997
==== e(  17) =     9.17266 eV ==== 
     psi = 0.152*[#  23]+0.096*[#  28]+0.096*[#  29]+0.096*[#  30]+0.096*[#  32]
          +0.096*[#  33]+0.096*[#  34]+0.064*[#  19]+0.064*[#  20]+0.064*[#  22]
          +0.034*[#  27]+0.034*[#  31]+0.003*[#  14]+0.003*[#  11]+0.003*[#  12]
          +0.003*[#  13]
    |psi|^2 = 0.997
==== e(  18) =     9.50135 eV ==== 
     psi = 0.268*[#   6]+0.268*[#   7]+0.268*[#   9]+0.030*[#  28]+0.030*[#  29]
          +0.030*[#  30]+0.030*[#  32]+0.030*[#  33]+0.030*[#  34]+0.003*[#  24]
          +0.003*[#  25]+0.003*[#  26]
    |psi|^2 = 0.994
==== e(  19) =     9.50135 eV ==== 
     psi = 0.268*[#   6]+0.268*[#   7]+0.268*[#   9]+0.030*[#  28]+0.030*[#  29]
          +0.030*[#  30]+0.030*[#  32]+0.030*[#  33]+0.030*[#  34]+0.003*[#  24]
          +0.003*[#  25]+0.003*[#  26]
    |psi|^2 = 0.994
==== e(  20) =    10.31276 eV ==== 
     psi = 0.110*[#  28]+0.110*[#  29]+0.110*[#  30]+0.110*[#  32]+0.110*[#  33]
          +0.110*[#  34]+0.089*[#   5]+0.089*[#   8]+0.052*[#   6]+0.052*[#   7]
          +0.052*[#   9]+0.001*[#  24]+0.001*[#  25]+0.001*[#  26]
    |psi|^2 = 0.996
==== e(  21) =    10.31276 eV ==== 
     psi = 0.110*[#  28]+0.110*[#  29]+0.110*[#  30]+0.110*[#  32]+0.110*[#  33]
          +0.110*[#  34]+0.089*[#   5]+0.089*[#   8]+0.052*[#   6]+0.052*[#   7]
          +0.052*[#   9]+0.001*[#  24]+0.001*[#  25]+0.001*[#  26]
    |psi|^2 = 0.996
==== e(  22) =    12.10804 eV ==== 
     psi = 0.137*[#  28]+0.137*[#  29]+0.137*[#  30]+0.137*[#  32]+0.137*[#  33]
          +0.137*[#  34]+0.069*[#  18]+0.069*[#  21]+0.006*[#  19]+0.006*[#  20]
          +0.006*[#  22]+0.005*[#  11]+0.005*[#  12]+0.005*[#  13]
    |psi|^2 = 0.996
==== e(  23) =    12.10804 eV ==== 
     psi = 0.137*[#  28]+0.137*[#  29]+0.137*[#  30]+0.137*[#  32]+0.137*[#  33]
          +0.137*[#  34]+0.069*[#  18]+0.069*[#  21]+0.006*[#  19]+0.006*[#  20]
          +0.006*[#  22]+0.005*[#  11]+0.005*[#  12]+0.005*[#  13]
    |psi|^2 = 0.996
==== e(  24) =    16.12209 eV ==== 
     psi = 0.258*[#   6]+0.258*[#   7]+0.258*[#   9]+0.036*[#  24]+0.036*[#  25]
          +0.036*[#  26]+0.033*[#  27]+0.033*[#  31]+0.022*[#  10]+0.004*[#   1]
          
    |psi|^2 = 0.979
==== e(  25) =    17.27953 eV ==== 
     psi = 0.406*[#   5]+0.406*[#   8]+0.023*[#  28]+0.023*[#  29]+0.023*[#  30]
          +0.023*[#  32]+0.023*[#  33]+0.023*[#  34]+0.011*[#   6]+0.011*[#   7]
          +0.011*[#   9]+0.004*[#  24]+0.004*[#  25]+0.004*[#  26]
    |psi|^2 = 0.997
==== e(  26) =    17.27953 eV ==== 
     psi = 0.406*[#   5]+0.406*[#   8]+0.023*[#  28]+0.023*[#  29]+0.023*[#  30]
          +0.023*[#  32]+0.023*[#  33]+0.023*[#  34]+0.011*[#   6]+0.011*[#   7]
          +0.011*[#   9]+0.004*[#  24]+0.004*[#  25]+0.004*[#  26]
    |psi|^2 = 0.997
==== e(  27) =    17.40522 eV ==== 
     psi = 0.202*[#  23]+0.126*[#  27]+0.126*[#  31]+0.106*[#  11]+0.106*[#  12]
          +0.106*[#  13]+0.034*[#  28]+0.034*[#  29]+0.034*[#  30]+0.034*[#  32]
          +0.034*[#  33]+0.034*[#  34]+0.006*[#  14]
    |psi|^2 = 0.988
==== e(  28) =    17.79485 eV ==== 
     psi = 0.170*[#  10]+0.103*[#  27]+0.103*[#  31]+0.086*[#  24]+0.086*[#  25]
          +0.086*[#  26]+0.045*[#   6]+0.045*[#   7]+0.045*[#   9]+0.036*[#  28]
          +0.036*[#  29]+0.036*[#  30]+0.036*[#  32]+0.036*[#  33]+0.036*[#  34]
          +0.005*[#   1]
    |psi|^2 = 0.993
==== e(  29) =    25.05590 eV ==== 
     psi = 0.353*[#  23]+0.080*[#  11]+0.080*[#  12]+0.080*[#  13]+0.014*[#  14]
          +0.009*[#  28]+0.009*[#  29]+0.009*[#  30]+0.009*[#  32]+0.009*[#  33]
          +0.009*[#  34]+0.003*[#  27]+0.003*[#  31]+0.001*[#  19]+0.001*[#  20]
          +0.001*[#  22]
    |psi|^2 = 0.672
==== e(  30) =    25.54804 eV ==== 
     psi = 0.387*[#  10]+0.078*[#  24]+0.078*[#  25]+0.078*[#  26]+0.014*[#   1]
          +0.013*[#   6]+0.013*[#   7]+0.013*[#   9]+0.008*[#  28]+0.008*[#  29]
          +0.008*[#  30]+0.008*[#  32]+0.008*[#  33]+0.008*[#  34]+0.002*[#  27]
          +0.002*[#  31]
    |psi|^2 = 0.730
==== e(  31) =    29.09361 eV ==== 
     psi = 0.270*[#  24]+0.270*[#  25]+0.270*[#  26]+0.003*[#   5]+0.003*[#   8]
          +0.002*[#  28]+0.002*[#  29]+0.002*[#  30]+0.002*[#  32]+0.002*[#  33]
          +0.002*[#  34]+0.002*[#  15]+0.002*[#  16]+0.002*[#  17]+0.001*[#   6]
          +0.001*[#   7]+0.001*[#   9]
    |psi|^2 = 0.839
==== e(  32) =    29.09361 eV ==== 
     psi = 0.270*[#  24]+0.270*[#  25]+0.270*[#  26]+0.003*[#   5]+0.003*[#   8]
          +0.002*[#  28]+0.002*[#  29]+0.002*[#  30]+0.002*[#  32]+0.002*[#  33]
          +0.002*[#  34]+0.002*[#  15]+0.002*[#  16]+0.002*[#  17]+0.001*[#   6]
          +0.001*[#   7]+0.001*[#   9]
    |psi|^2 = 0.839
==== e(  33) =    29.31838 eV ==== 
     psi = 0.256*[#  11]+0.256*[#  12]+0.256*[#  13]+0.002*[#  28]+0.002*[#  29]
          +0.002*[#  30]+0.002*[#  32]+0.002*[#  33]+0.002*[#  34]+0.001*[#   2]
          +0.001*[#   3]+0.001*[#   4]
    |psi|^2 = 0.785
==== e(  34) =    29.31838 eV ==== 
     psi = 0.256*[#  11]+0.256*[#  12]+0.256*[#  13]+0.002*[#  28]+0.002*[#  29]
          +0.002*[#  30]+0.002*[#  32]+0.002*[#  33]+0.002*[#  34]+0.001*[#   2]
          +0.001*[#   3]+0.001*[#   4]
    |psi|^2 = 0.785
==== e(  35) =    32.85109 eV ==== 
     psi = 0.118*[#  10]+0.031*[#  24]+0.031*[#  25]+0.031*[#  26]+0.005*[#   1]
          +0.002*[#  28]+0.002*[#  29]+0.002*[#  30]+0.002*[#  32]+0.002*[#  33]
          +0.002*[#  34]+0.002*[#  27]+0.002*[#  31]
    |psi|^2 = 0.233
==== e(  36) =    33.01660 eV ==== 
     psi = 0.125*[#  23]+0.043*[#  11]+0.043*[#  12]+0.043*[#  13]+0.007*[#  14]
          +0.003*[#  27]+0.003*[#  31]+0.002*[#  28]+0.002*[#  29]+0.002*[#  30]
          +0.002*[#  32]+0.002*[#  33]+0.002*[#  34]
    |psi|^2 = 0.280
==== e(  37) =    34.87700 eV ==== 
     psi = 0.029*[#  11]+0.029*[#  12]+0.029*[#  13]
    |psi|^2 = 0.088
==== e(  38) =    34.87700 eV ==== 
     psi = 0.029*[#  11]+0.029*[#  12]+0.029*[#  13]
    |psi|^2 = 0.088
==== e(  39) =    35.14671 eV ==== 
     psi = 0.022*[#  24]+0.022*[#  25]+0.022*[#  26]+0.001*[#   5]+0.001*[#   6]
          +0.001*[#   7]+0.001*[#   8]+0.001*[#   9]
    |psi|^2 = 0.072
==== e(  40) =    35.14671 eV ==== 
     psi = 0.022*[#  24]+0.022*[#  25]+0.022*[#  26]+0.001*[#   5]+0.001*[#   6]
          +0.001*[#   7]+0.001*[#   8]+0.001*[#   9]
    |psi|^2 = 0.072

Lowdin Charges: 

     Atom #   1: total charge =  16.5532, s =  2.3641, p =  6.9669, d =  7.2221, 
                 spin up      =   9.6443, s =  1.1855, 
                 spin up      =   9.6443, p =  3.4836, pz=  1.1612, px=  1.1612, py=  1.1612, 
                 spin up      =   9.6443, d =  4.9752, dz2=  0.9946, dxz=  0.9953, dyz=  0.9953, dx2-y2=  0.9946, dxy=  0.9953, 
                 spin down    =   6.9089, s =  1.1787, 
                 spin down    =   6.9089, p =  3.4833, pz=  1.1611, px=  1.1611, py=  1.1611, 
                 spin down    =   6.9089, d =  2.2469, dz2=  0.1478, dxz=  0.6504, dyz=  0.6504, dx2-y2=  0.1478, dxy=  0.6504, 
                 polarization =   2.7355, s =  0.0068, p =  0.0004, d =  2.7283, 
     Atom #   2: total charge =  16.5532, s =  2.3641, p =  6.9669, d =  7.2221, 
                 spin up      =   6.9089, s =  1.1787, 
                 spin up      =   6.9089, p =  3.4833, pz=  1.1611, px=  1.1611, py=  1.1611, 
                 spin up      =   6.9089, d =  2.2469, dz2=  0.1478, dxz=  0.6504, dyz=  0.6504, dx2-y2=  0.1478, dxy=  0.6504, 
                 spin down    =   9.6443, s =  1.1855, 
                 spin down    =   9.6443, p =  3.4837, pz=  1.1612, px=  1.1612, py=  1.1612, 
                 spin down    =   9.6443, d =  4.9752, dz2=  0.9946, dxz=  0.9953, dyz=  0.9953, dx2-y2=  0.9946, dxy=  0.9953, 
                 polarization =  -2.7354, s = -0.0068, p = -0.0004, d = -2.7283, 
     Atom #   3: total charge =   6.4155, s =  1.6237, p =  4.7918, d =  0.0000, 
                 spin up      =   3.2077, s =  0.8119, 
                 spin up      =   3.2077, p =  2.3959, pz=  0.7986, px=  0.7986, py=  0.7986, 
                 spin up      =   3.2077, d =  0.0000, dz2=  0.0000, dxz=  0.0000, dyz=  0.0000, dx2-y2=  0.0000, dxy=  0.0000, 
                 spin down    =   3.2077, s =  0.8119, 
                 spin down    =   3.2077, p =  2.3959, pz=  0.7986, px=  0.7986, py=  0.7986, 
                 spin down    =   3.2077, d =  0.0000, dz2=  0.0000, dxz=  0.0000, dyz=  0.0000, dx2-y2=  0.0000, dxy=  0.0000, 
                 polarization =   0.0000, s =  0.0000, p =  0.0000, d =  0.0000, 
     Atom #   4: total charge =   6.4155, s =  1.6237, p =  4.7918, d =  0.0000, 
                 spin up      =   3.2077, s =  0.8119, 
                 spin up      =   3.2077, p =  2.3959, pz=  0.7986, px=  0.7986, py=  0.7986, 
                 spin up      =   3.2077, d =  0.0000, dz2=  0.0000, dxz=  0.0000, dyz=  0.0000, dx2-y2=  0.0000, dxy=  0.0000, 
                 spin down    =   3.2077, s =  0.8119, 
                 spin down    =   3.2077, p =  2.3959, pz=  0.7986, px=  0.7986, py=  0.7986, 
                 spin down    =   3.2077, d =  0.0000, dz2=  0.0000, dxz=  0.0000, dyz=  0.0000, dx2-y2=  0.0000, dxy=  0.0000, 
                 polarization =   0.0000, s =  0.0000, p =  0.0000, d =  0.0000, 
     Spilling Parameter:   0.0014
 
     PROJWFC      :      1.54s CPU      1.83s WALL

 
   This run was terminated on:  14:47:34   7Jun2021            

=------------------------------------------------------------------------------=
   JOB DONE.
=------------------------------------------------------------------------------=
