
     Program PWSCF v.7.1 starts on 31Oct2022 at 15:23: 8 

     This program is part of the open-source Quantum ESPRESSO suite
     for quantum simulation of materials; please cite
         "P. Giannozzi et al., J. Phys.:Condens. Matter 21 395502 (2009);
         "P. Giannozzi et al., J. Phys.:Condens. Matter 29 465901 (2017);
         "P. Giannozzi et al., J. Chem. Phys. 152 154105 (2020);
          URL http://www.quantum-espresso.org", 
     in publications or presentations arising from this work. More details at
     http://www.quantum-espresso.org/quote

     Parallel version (MPI), running on     1 processors

     MPI processes distributed on     1 nodes
     162 MiB available memory on the printing compute node when the environment starts
 
     Reading input from Si.pw.in

     Current dimensions of program PWSCF are:
     Max number of different atomic species (ntypx) = 10
     Max number of k-points (npk) =  40000
     Max angular momentum in pseudopotentials (lmaxx) =  4

     IMPORTANT: XC functional enforced from input :
     Exchange-correlation= PBE0
                           (   6   4   8   4   0   0   0)
     EXX-fraction              =        0.25
     Any further DFT definition will be discarded
     Please, verify this is what you really want

 
     Subspace diagonalization in iterative solution of the eigenvalue problem:
     a serial algorithm will be used

     EXX: q-point mesh:     4    4    4
     EXX: setup a grid of 1600 q-points centered on each k-point
     (k+q)-points:
   0.0000000   0.0000000   0.0000000         1    1
  -0.2500000   0.2500000  -0.2500000         4    1
   0.5000000  -0.5000000   0.5000000         7    1
   0.2500000  -0.2500000   0.2500000         4   -1
   0.2500000   0.2500000   0.2500000         4    3
   0.0000000   0.5000000   0.0000000        28    1
   0.7500000  -0.2500000   0.7500000        31    1
   0.5000000   0.0000000   0.5000000        34    1
  -0.5000000  -0.5000000  -0.5000000         7    3
  -0.7500000  -0.2500000  -0.7500000        31    3
   0.0000000  -1.0000000   0.0000000        43    1
   0.7500000   0.2500000   0.7500000        31   -3
  -0.2500000  -0.2500000  -0.2500000         4   -3
  -0.5000000   0.0000000  -0.5000000        34   -1
  -0.7500000   0.2500000  -0.7500000        31   -1
   0.0000000  -0.5000000   0.0000000        28   -1
  -0.2500000  -0.2500000   0.2500000         4    4
  -0.5000000   0.0000000   0.0000000        28   -5
   0.2500000  -0.7500000   0.7500000        31   -5
   0.0000000  -0.5000000   0.5000000        34   -5
   0.0000000   0.0000000   0.5000000        28   13
  -0.2500000   0.2500000   0.2500000         4   -2
  -0.5000000   0.5000000   0.0000000        34   13
  -0.7500000   0.7500000  -0.2500000        31   13
  -0.7500000  -0.7500000  -0.2500000        31  -16
   0.0000000   0.5000000   0.5000000        34   -6
   0.7500000  -0.2500000  -0.7500000        31   -2
  -0.5000000  -1.0000000   0.0000000        72    1
  -0.5000000  -0.5000000   0.0000000        34   14
   0.2500000   0.7500000   0.7500000        31    7
   0.0000000  -1.0000000   0.5000000        72   -9
   0.7500000   0.2500000  -0.7500000        31    4
   0.5000000   0.5000000  -0.5000000         7    4
   0.2500000   0.7500000  -0.7500000        31   -8
  -1.0000000   0.0000000   0.0000000        43    5
  -0.2500000  -0.7500000   0.7500000        31    8
   0.7500000   0.7500000  -0.2500000        31  -14
  -0.5000000   0.0000000   0.5000000        34    2
   0.2500000  -0.7500000  -0.7500000        31    6
   1.0000000   0.5000000   0.0000000        72   -5
   0.0000000   0.0000000  -1.0000000        43   13
   0.7500000  -0.7500000  -0.2500000        31   15
  -0.5000000   0.5000000   0.5000000         7    2
  -0.7500000   0.7500000   0.2500000        31  -15
  -0.7500000  -0.7500000   0.2500000        31   14
  -1.0000000  -0.5000000   0.0000000        72    5
  -0.2500000   0.7500000   0.7500000        31   -6
   0.5000000   0.0000000  -0.5000000        34   -2
   0.2500000   0.2500000  -0.2500000         4   -4
   0.0000000   0.5000000  -0.5000000        34    5
  -0.2500000   0.7500000  -0.7500000        31    5
   0.5000000   0.0000000   0.0000000        28    5
   0.5000000   0.5000000   0.0000000        34  -14
  -0.7500000  -0.2500000   0.7500000        31   -4
   0.0000000   1.0000000  -0.5000000        72    9
  -0.2500000  -0.7500000  -0.7500000        31   -7
   0.7500000   0.7500000   0.2500000        31   16
   0.5000000   1.0000000   0.0000000        72   -1
  -0.7500000   0.2500000   0.7500000        31    2
   0.0000000  -0.5000000  -0.5000000        34    6
   0.0000000   0.0000000  -0.5000000        28  -13
   0.7500000  -0.7500000   0.2500000        31  -13
   0.5000000  -0.5000000   0.0000000        34  -13
   0.2500000  -0.2500000  -0.2500000         4    2
  -0.0833333   0.0833333  -0.0833333         2    1
  -0.3333333   0.3333333  -0.3333333         5    1
   0.4166667  -0.4166667   0.4166667         6   -1
   0.1666667  -0.1666667   0.1666667         3   -1
   0.1666667   0.3333333   0.1666667        10    3
  -0.0833333   0.5833333  -0.0833333        29    1
   0.6666667  -0.1666667   0.6666667        32    1
   0.4166667   0.0833333   0.4166667        26   -3
  -0.5833333  -0.4166667  -0.5833333        13    3
  -0.8333333  -0.1666667  -0.8333333        37    3
   0.9166667   0.0833333   0.9166667        41   -3
   0.6666667   0.3333333   0.6666667        23   -3
  -0.3333333  -0.1666667  -0.3333333        16    3
  -0.5833333   0.0833333  -0.5833333        33   -1
   0.1666667  -0.6666667   0.1666667        30   -1
  -0.0833333  -0.4166667  -0.0833333        20   -3
  -0.3333333  -0.1666667   0.1666667        10   -8
  -0.5833333   0.0833333  -0.0833333        29   -5
   0.1666667  -0.6666667   0.6666667        32   -5
  -0.0833333  -0.4166667   0.4166667        26    8
  -0.0833333   0.0833333   0.4166667        20   15
  -0.3333333   0.3333333   0.1666667        16  -15
  -0.5833333   0.5833333  -0.0833333        33   13
   0.1666667  -0.1666667   0.6666667        30   13
  -0.8333333  -0.6666667  -0.3333333        51   18
  -0.0833333   0.5833333   0.4166667        54   21
   0.6666667  -0.1666667  -0.8333333        58   -2
  -0.5833333  -0.9166667  -0.0833333        69  -16
  -0.5833333  -0.4166667  -0.0833333        54   18
   0.1666667   0.8333333   0.6666667        58  -24
   0.9166667   0.0833333  -0.5833333        69  -11
   0.6666667   0.3333333  -0.8333333        51    4
   0.4166667   0.5833333  -0.5833333        13   -8
   0.1666667   0.8333333  -0.8333333        37   -8
  -0.0833333  -0.9166667   0.9166667        41    8
  -0.3333333  -0.6666667   0.6666667        23    8
   0.6666667   0.8333333  -0.3333333        51  -14
  -0.5833333   0.0833333   0.4166667        54  -12
   0.1666667  -0.6666667  -0.8333333        58    6
   0.9166667   0.5833333  -0.0833333        69   17
   0.9166667  -0.9166667  -0.0833333        41   15
   0.6666667  -0.6666667  -0.3333333        23   15
  -0.5833333   0.5833333   0.4166667        13  -15
  -0.8333333   0.8333333   0.1666667        37  -15
  -0.8333333  -0.6666667   0.1666667        58  -17
  -0.0833333   0.5833333   0.9166667        69   -6
  -0.3333333   0.8333333   0.6666667        51   21
   0.4166667   0.0833333  -0.5833333        54    4
   0.1666667   0.3333333  -0.3333333        16   -8
  -0.0833333   0.5833333  -0.5833333        33    5
   0.6666667  -0.1666667   0.1666667        30    5
   0.4166667   0.0833333  -0.0833333        20    8
   0.4166667   0.5833333  -0.0833333        54  -14
  -0.8333333  -0.1666667   0.6666667        58   11
  -0.0833333  -0.9166667  -0.5833333        69   24
  -0.3333333  -0.6666667  -0.8333333        51   -7
   0.6666667   0.8333333   0.1666667        58   16
  -0.5833333   0.0833333   0.9166667        69    2
  -0.8333333   0.3333333   0.6666667        51  -12
  -0.0833333  -0.4166667  -0.5833333        54   -7
  -0.0833333   0.0833333  -0.5833333        29  -13
   0.6666667  -0.6666667   0.1666667        32  -13
   0.4166667  -0.4166667  -0.0833333        26   15
   0.1666667  -0.1666667  -0.3333333        10  -15
  -0.1666667   0.1666667  -0.1666667         3    1
  -0.4166667   0.4166667  -0.4166667         6    1
   0.3333333  -0.3333333   0.3333333         5   -1
   0.0833333  -0.0833333   0.0833333         2   -1
   0.0833333   0.4166667   0.0833333        20    3
  -0.1666667   0.6666667  -0.1666667        30    1
   0.5833333  -0.0833333   0.5833333        33    1
   0.3333333   0.1666667   0.3333333        16   -3
  -0.6666667  -0.3333333  -0.6666667        23    3
  -0.9166667  -0.0833333  -0.9166667        41    3
   0.8333333   0.1666667   0.8333333        37   -3
   0.5833333   0.4166667   0.5833333        13   -3
  -0.4166667  -0.0833333  -0.4166667        26    3
  -0.6666667   0.1666667  -0.6666667        32   -1
   0.0833333  -0.5833333   0.0833333        29   -1
  -0.1666667  -0.3333333  -0.1666667        10   -3
  -0.4166667  -0.0833333   0.0833333        20   -8
  -0.6666667   0.1666667  -0.1666667        30   -5
   0.0833333  -0.5833333   0.5833333        33   -5
  -0.1666667  -0.3333333   0.3333333        16    8
  -0.1666667   0.1666667   0.3333333        10   15
  -0.4166667   0.4166667   0.0833333        26  -15
  -0.6666667   0.6666667  -0.1666667        32   13
   0.0833333  -0.0833333   0.5833333        29   13
   0.0833333   0.4166667   0.5833333        54    7
   0.8333333  -0.3333333  -0.6666667        51   12
   0.5833333  -0.0833333  -0.9166667        69   -2
  -0.6666667  -0.8333333  -0.1666667        58  -16
   0.3333333   0.6666667   0.8333333        51    7
   0.0833333   0.9166667   0.5833333        69  -24
   0.8333333   0.1666667  -0.6666667        58  -11
  -0.4166667  -0.5833333   0.0833333        54   14
   0.3333333   0.6666667  -0.6666667        23   -8
   0.0833333   0.9166667  -0.9166667        41   -8
  -0.1666667  -0.8333333   0.8333333        37    8
  -0.4166667  -0.5833333   0.5833333        13    8
  -0.4166667  -0.0833333   0.5833333        54   -4
   0.3333333  -0.8333333  -0.6666667        51  -21
   0.0833333  -0.5833333  -0.9166667        69    6
   0.8333333   0.6666667  -0.1666667        58   17
   0.8333333  -0.8333333  -0.1666667        37   15
   0.5833333  -0.5833333  -0.4166667        13   15
  -0.6666667   0.6666667   0.3333333        23  -15
  -0.9166667   0.9166667   0.0833333        41  -15
  -0.9166667  -0.5833333   0.0833333        69  -17
  -0.1666667   0.6666667   0.8333333        58   -6
   0.5833333  -0.0833333  -0.4166667        54   12
  -0.6666667  -0.8333333   0.3333333        51   14
   0.0833333   0.4166667  -0.4166667        26   -8
  -0.1666667   0.6666667  -0.6666667        32    5
   0.5833333  -0.0833333   0.0833333        29    5
   0.3333333   0.1666667  -0.1666667        10    8
  -0.6666667  -0.3333333   0.8333333        51   -4
  -0.9166667  -0.0833333   0.5833333        69   11
  -0.1666667  -0.8333333  -0.6666667        58   24
   0.5833333   0.4166667   0.0833333        54  -18
   0.5833333   0.9166667   0.0833333        69   16
  -0.6666667   0.1666667   0.8333333        58    2
   0.0833333  -0.5833333  -0.4166667        54  -21
   0.8333333   0.6666667   0.3333333        51  -18
  -0.1666667   0.1666667  -0.6666667        30  -13
   0.5833333  -0.5833333   0.0833333        33  -13
   0.3333333  -0.3333333  -0.1666667        16   15
   0.0833333  -0.0833333  -0.4166667        20  -15
   0.0000000   0.1666667   0.0000000         8    1
  -0.2500000   0.4166667  -0.2500000        11    1
   0.5000000  -0.3333333   0.5000000        14    1
   0.2500000  -0.0833333   0.2500000        17    1
   0.2500000   0.4166667   0.2500000        11    3
   0.0000000   0.6666667   0.0000000        35    1
   0.7500000  -0.0833333   0.7500000        38    1
   0.5000000   0.1666667   0.5000000        25   -3
  -0.5000000  -0.3333333  -0.5000000        14    3
  -0.7500000  -0.0833333  -0.7500000        38    3
   0.0000000  -0.8333333   0.0000000        40   -1
  -0.2500000  -0.5833333  -0.2500000        22   -3
  -0.2500000  -0.0833333  -0.2500000        17    3
  -0.5000000   0.1666667  -0.5000000        25   -1
   0.2500000  -0.5833333   0.2500000        22   -1
   0.0000000  -0.3333333   0.0000000        19   -1
  -0.2500000  -0.0833333   0.2500000        17   -4
  -0.5000000   0.1666667   0.0000000        49   -5
   0.2500000  -0.5833333   0.7500000        52   -5
  -0.0000000  -0.3333333   0.5000000        55   -5
   0.0000000   0.1666667   0.5000000        49   18
  -0.2500000   0.4166667   0.2500000        11   -2
  -0.5000000   0.6666667   0.0000000        60   13
  -0.7500000   0.9166667  -0.2500000        57   13
  -0.7500000  -0.5833333  -0.2500000        52   18
  -0.0000000   0.6666667   0.5000000        60   21
   0.7500000  -0.0833333  -0.7500000        38   -2
  -0.5000000  -0.8333333   0.0000000        70   14
  -0.5000000  -0.3333333  -0.0000000        55  -17
   0.2500000   0.9166667   0.7500000        57  -24
   0.0000000  -0.8333333   0.5000000        70   22
  -0.2500000  -0.5833333   0.2500000        22    4
  -0.5000000  -0.3333333   0.5000000        14   -4
   0.2500000   0.9166667  -0.7500000        57   23
   1.0000000   0.1666667   0.0000000        64   -5
  -0.2500000  -0.5833333   0.7500000        52    8
   0.7500000   0.9166667  -0.2500000        57  -14
  -0.5000000   0.1666667   0.5000000        25    2
   0.2500000  -0.5833333  -0.7500000        52    6
   0.0000000  -0.3333333  -1.0000000        71   17
   0.0000000   0.1666667   1.0000000        64  -17
   0.7500000  -0.5833333  -0.2500000        52  -19
   0.5000000  -0.3333333  -0.5000000        14   -2
  -0.7500000   0.9166667   0.2500000        57  -15
  -0.7500000  -0.5833333   0.2500000        52  -17
  -1.0000000  -0.3333333   0.0000000        71    5
  -0.2500000   0.9166667   0.7500000        57   21
   0.5000000   0.1666667  -0.5000000        25    4
   0.2500000   0.4166667  -0.2500000        11   -4
   0.0000000   0.6666667  -0.5000000        60  -22
  -0.2500000   0.9166667  -0.7500000        57  -22
   0.5000000   0.1666667   0.0000000        49   -7
   0.5000000   0.6666667   0.0000000        60  -14
  -0.7500000  -0.0833333   0.7500000        38   -4
  -0.0000000  -0.8333333  -0.5000000        70  -21
  -0.2500000  -0.5833333  -0.7500000        52   -7
   0.7500000   0.9166667   0.2500000        57   16
   0.5000000  -0.8333333   0.0000000        70  -13
   0.2500000  -0.5833333  -0.2500000        22    2
  -0.0000000  -0.3333333  -0.5000000        55    6
   0.0000000   0.1666667  -0.5000000        49  -17
   0.7500000  -0.5833333   0.2500000        52   20
   0.5000000  -0.3333333   0.0000000        55  -19
   0.2500000  -0.0833333  -0.2500000        17   -2
  -0.0833333   0.2500000  -0.0833333         9    1
  -0.3333333   0.5000000  -0.3333333        12    1
   0.4166667  -0.2500000   0.4166667        15    1
   0.1666667  -0.0000000   0.1666667        18    1
   0.1666667   0.5000000   0.1666667        21    3
  -0.0833333   0.7500000  -0.0833333        36    1
   0.6666667   0.0000000   0.6666667        39    1
   0.4166667   0.2500000   0.4166667        15   -3
  -0.5833333  -0.2500000  -0.5833333        24    3
  -0.8333333   0.0000000  -0.8333333        42   -1
  -0.0833333  -0.7500000  -0.0833333        36   -3
  -0.3333333  -0.5000000  -0.3333333        12   -3
  -0.3333333   0.0000000  -0.3333333        27   -1
  -0.5833333   0.2500000  -0.5833333        24   -1
   0.1666667  -0.5000000   0.1666667        21   -1
  -0.0833333  -0.2500000  -0.0833333         9   -3
  -0.3333333   0.0000000   0.1666667        44  -21
  -0.5833333   0.2500000  -0.0833333        50   -5
   0.1666667  -0.5000000   0.6666667        53   -5
  -0.0833333  -0.2500000   0.4166667        45   17
  -0.0833333   0.2500000   0.4166667        45  -19
  -0.3333333   0.5000000   0.1666667        46   -2
  -0.5833333   0.7500000  -0.0833333        59   13
   0.1666667  -0.0000000   0.6666667        56   13
   0.1666667   0.5000000   0.6666667        53    7
   0.9166667  -0.2500000  -0.5833333        66   12
   0.6666667  -0.0000000  -0.8333333        63   -2
  -0.5833333  -0.7500000  -0.0833333        59  -16
  -0.5833333  -0.2500000  -0.0833333        50    7
   0.1666667  -1.0000000   0.6666667        68   22
   0.9166667   0.2500000  -0.5833333        66  -11
  -0.3333333  -0.5000000   0.1666667        46    4
   0.4166667   0.7500000  -0.5833333        47   23
   0.1666667  -1.0000000  -0.8333333        61  -21
  -0.0833333  -0.7500000   0.9166667        62    8
  -0.3333333  -0.5000000   0.6666667        48    8
   0.6666667   1.0000000  -0.3333333        65  -14
   0.4166667  -0.7500000  -0.5833333        47  -21
   0.1666667  -0.5000000  -0.8333333        67    6
   0.9166667   0.7500000  -0.0833333        62   17
   0.9166667  -0.7500000  -0.0833333        62  -19
  -0.3333333   0.5000000   0.6666667        48   -6
  -0.5833333   0.7500000   0.4166667        47  -15
  -0.8333333  -1.0000000   0.1666667        61   14
   0.1666667   0.5000000  -0.8333333        67   -8
  -0.0833333   0.7500000   0.9166667        62   -6
  -0.3333333   1.0000000   0.6666667        65   21
  -0.5833333  -0.7500000   0.4166667        47   14
   0.1666667   0.5000000  -0.3333333        46   11
  -0.0833333   0.7500000  -0.5833333        59  -22
   0.6666667  -0.0000000   0.1666667        56  -22
   0.4166667   0.2500000  -0.0833333        45    8
  -0.5833333  -0.2500000   0.9166667        66   -4
  -0.8333333   0.0000000   0.6666667        63   11
  -0.0833333  -0.7500000  -0.5833333        59   24
   0.6666667   0.5000000   0.1666667        53  -18
   0.6666667  -1.0000000   0.1666667        68  -13
  -0.5833333   0.2500000   0.9166667        66    2
   0.1666667  -0.5000000  -0.3333333        46  -12
  -0.0833333  -0.2500000  -0.5833333        50  -18
  -0.0833333   0.2500000  -0.5833333        50   20
   0.6666667  -0.5000000   0.1666667        53   20
   0.4166667  -0.2500000  -0.0833333        45   -6
   0.1666667   0.0000000  -0.3333333        44   14
  -0.1666667   0.3333333  -0.1666667        10    1
   0.5833333  -0.4166667   0.5833333        13    1
   0.3333333  -0.1666667   0.3333333        16    1
   0.0833333   0.0833333   0.0833333         2    3
   0.0833333   0.5833333   0.0833333        29    3
   0.8333333  -0.1666667   0.8333333        37    1
   0.5833333   0.0833333   0.5833333        33   -3
   0.3333333   0.3333333   0.3333333         5    3
  -0.6666667  -0.1666667  -0.6666667        32    3
  -0.9166667   0.0833333  -0.9166667        41   -1
  -0.1666667  -0.6666667  -0.1666667        30   -3
  -0.4166667  -0.4166667  -0.4166667         6   -3
  -0.4166667   0.0833333  -0.4166667        26   -1
  -0.6666667   0.3333333  -0.6666667        23   -1
   0.0833333  -0.4166667   0.0833333        20   -1
  -0.1666667  -0.1666667  -0.1666667         3   -3
  -0.4166667   0.0833333   0.0833333        20    6
   0.3333333  -0.6666667   0.8333333        51   -5
   0.0833333  -0.4166667   0.5833333        54   -5
  -0.1666667  -0.1666667   0.3333333        10  -14
  -0.1666667   0.3333333   0.3333333        16   -6
  -0.4166667   0.5833333   0.0833333        54  -15
  -0.6666667   0.8333333  -0.1666667        58   13
   0.0833333   0.0833333   0.5833333        29  -16
   0.0833333   0.5833333   0.5833333        33    7
   0.8333333  -0.1666667  -0.6666667        58   12
   0.5833333   0.0833333  -0.9166667        69    4
  -0.6666667  -0.6666667  -0.1666667        32  -16
  -0.6666667  -0.1666667  -0.1666667        30    7
   0.0833333  -0.9166667   0.5833333        69   22
   0.8333333   0.3333333  -0.6666667        51  -11
  -0.4166667  -0.4166667   0.0833333        26   14
   0.3333333   0.8333333  -0.6666667        51   23
   0.0833333  -0.9166667  -0.9166667        41    6
  -0.1666667  -0.6666667   0.8333333        58    8
   0.5833333   0.5833333  -0.4166667        13  -14
  -0.4166667   0.0833333   0.5833333        54    2
   0.3333333  -0.6666667  -0.6666667        23    6
  -0.9166667   0.5833333   0.0833333        69   19
   0.8333333   0.8333333  -0.1666667        37  -14
   0.8333333  -0.6666667  -0.1666667        58  -19
  -0.4166667   0.5833333   0.5833333        13   -6
  -0.6666667   0.8333333   0.3333333        51  -15
  -0.9166667  -0.9166667   0.0833333        41   14
   0.0833333   0.5833333  -0.9166667        69   -8
  -0.1666667   0.8333333   0.8333333        37   -6
   0.5833333   0.0833333  -0.4166667        54  -11
  -0.6666667  -0.6666667   0.3333333        23   14
   0.0833333   0.5833333  -0.4166667        54   23
  -0.1666667   0.8333333  -0.6666667        58  -22
   0.5833333   0.0833333   0.0833333        29   -7
   0.3333333   0.3333333  -0.1666667        16  -14
  -0.6666667  -0.1666667   0.8333333        58   -4
  -0.9166667   0.0833333   0.5833333        69  -12
  -0.1666667  -0.6666667  -0.6666667        32   -7
   0.5833333   0.5833333   0.0833333        33   16
   0.5833333  -0.9166667   0.0833333        69  -13
  -0.6666667   0.3333333   0.8333333        51    2
   0.0833333  -0.4166667  -0.4166667        26    6
  -0.1666667  -0.1666667  -0.6666667        30   16
   0.8333333  -0.6666667   0.3333333        51   20
   0.5833333  -0.4166667   0.0833333        54   20
   0.3333333  -0.1666667  -0.1666667        10   -6
   0.0833333   0.0833333  -0.4166667        20   14
   0.0000000   0.3333333   0.0000000        19    1
  -0.2500000   0.5833333  -0.2500000        22    1
   0.5000000  -0.1666667   0.5000000        25    1
   0.2500000   0.0833333   0.2500000        17   -3
   0.2500000   0.5833333   0.2500000        22    3
   0.0000000   0.8333333   0.0000000        40    1
   0.7500000   0.0833333   0.7500000        38   -3
   0.5000000   0.3333333   0.5000000        14   -3
  -0.5000000  -0.1666667  -0.5000000        25    3
  -0.7500000   0.0833333  -0.7500000        38   -1
   0.0000000  -0.6666667   0.0000000        35   -1
  -0.2500000  -0.4166667  -0.2500000        11   -3
  -0.2500000   0.0833333  -0.2500000        17   -1
  -0.5000000   0.3333333  -0.5000000        14   -1
   0.2500000  -0.4166667   0.2500000        11   -1
   0.0000000  -0.1666667   0.0000000         8   -1
  -0.2500000   0.0833333   0.2500000        17    2
  -0.5000000   0.3333333  -0.0000000        55   19
  -0.7500000   0.5833333  -0.2500000        52  -20
   0.0000000  -0.1666667   0.5000000        49   17
   0.0000000   0.3333333   0.5000000        55   -6
  -0.2500000   0.5833333   0.2500000        22   -2
  -0.5000000   0.8333333   0.0000000        70   13
  -0.7500000  -0.9166667  -0.2500000        57  -16
   0.2500000   0.5833333   0.7500000        52    7
   0.0000000   0.8333333   0.5000000        70   21
   0.7500000   0.0833333  -0.7500000        38    4
  -0.5000000  -0.6666667   0.0000000        60   14
  -0.5000000  -0.1666667   0.0000000        49    7
   0.2500000  -0.9166667   0.7500000        57   22
   0.0000000  -0.6666667   0.5000000        60   22
  -0.2500000  -0.4166667   0.2500000        11    4
  -0.5000000  -0.1666667   0.5000000        25   -4
   0.2500000  -0.9166667  -0.7500000        57  -21
   1.0000000   0.3333333   0.0000000        71   -5
   0.7500000   0.5833333  -0.2500000        52   17
   0.7500000  -0.9166667  -0.2500000        57   15
  -0.5000000   0.3333333   0.5000000        14    2
  -0.7500000   0.5833333   0.2500000        52   19
  -0.0000000  -0.1666667  -1.0000000        64   17
   0.0000000   0.3333333   1.0000000        71  -17
  -0.2500000   0.5833333   0.7500000        52   -6
   0.5000000  -0.1666667  -0.5000000        25   -2
  -0.7500000  -0.9166667   0.2500000        57   14
   0.2500000   0.5833333  -0.7500000        52   -8
  -1.0000000  -0.1666667   0.0000000        64    5
  -0.2500000  -0.9166667   0.7500000        57  -23
   0.5000000   0.3333333  -0.5000000        14    4
   0.2500000   0.5833333  -0.2500000        22   -4
   0.0000000   0.8333333  -0.5000000        70  -22
  -0.2500000  -0.9166667  -0.7500000        57   24
   0.5000000   0.3333333   0.0000000        55   17
   0.5000000   0.8333333   0.0000000        70  -14
  -0.7500000   0.0833333   0.7500000        38    2
   0.0000000  -0.6666667  -0.5000000        60  -21
   0.7500000   0.5833333   0.2500000        52  -18
   0.7500000  -0.9166667   0.2500000        57  -13
   0.5000000  -0.6666667   0.0000000        60  -13
   0.2500000  -0.4166667  -0.2500000        11    2
   0.0000000  -0.1666667  -0.5000000        49  -18
   0.0000000   0.3333333  -0.5000000        55    5
  -0.2500000   0.5833333  -0.7500000        52    5
   0.5000000  -0.1666667   0.0000000        49    5
   0.2500000   0.0833333  -0.2500000        17    4
  -0.0833333   0.4166667  -0.0833333        20    1
   0.6666667  -0.3333333   0.6666667        23    1
   0.4166667  -0.0833333   0.4166667        26    1
   0.1666667   0.1666667   0.1666667         3    3
   0.1666667   0.6666667   0.1666667        30    3
   0.9166667  -0.0833333   0.9166667        41    1
   0.6666667   0.1666667   0.6666667        32   -3
   0.4166667   0.4166667   0.4166667         6    3
  -0.5833333  -0.0833333  -0.5833333        33    3
  -0.8333333   0.1666667  -0.8333333        37   -1
  -0.0833333  -0.5833333  -0.0833333        29   -3
  -0.3333333  -0.3333333  -0.3333333         5   -3
  -0.3333333   0.1666667  -0.3333333        16   -1
  -0.5833333   0.4166667  -0.5833333        13   -1
   0.1666667  -0.3333333   0.1666667        10   -1
  -0.0833333  -0.0833333  -0.0833333         2   -3
  -0.3333333   0.1666667   0.1666667        10    6
  -0.5833333   0.4166667  -0.0833333        54  -20
  -0.8333333   0.6666667  -0.3333333        51  -20
  -0.0833333  -0.0833333   0.4166667        20  -14
  -0.0833333   0.4166667   0.4166667        26   -6
   0.6666667  -0.3333333  -0.8333333        51   -2
  -0.5833333   0.9166667  -0.0833333        69   13
   0.1666667   0.1666667   0.6666667        30  -16
   0.1666667   0.6666667   0.6666667        32    7
   0.9166667  -0.0833333  -0.5833333        69   12
   0.6666667   0.1666667  -0.8333333        58    4
  -0.5833333  -0.5833333  -0.0833333        33  -16
  -0.5833333  -0.0833333  -0.0833333        29    7
   0.1666667  -0.8333333   0.6666667        58   22
  -0.0833333  -0.5833333   0.4166667        54  -23
  -0.3333333  -0.3333333   0.1666667        16   14
  -0.5833333  -0.0833333   0.4166667        54   11
   0.1666667  -0.8333333  -0.8333333        37    6
  -0.0833333  -0.5833333   0.9166667        69    8
   0.6666667   0.6666667  -0.3333333        23  -14
   0.6666667  -0.8333333  -0.3333333        51   15
   0.4166667  -0.5833333  -0.5833333        13    6
  -0.8333333   0.6666667   0.1666667        58   19
   0.9166667   0.9166667  -0.0833333        41  -14
   0.9166667  -0.5833333  -0.0833333        69  -19
  -0.3333333   0.6666667   0.6666667        23   -6
   0.4166667  -0.0833333  -0.5833333        54   -2
  -0.8333333  -0.8333333   0.1666667        37   14
   0.1666667   0.6666667  -0.8333333        58   -8
  -0.0833333   0.9166667   0.9166667        41   -6
  -0.3333333  -0.8333333   0.6666667        51  -23
  -0.5833333  -0.5833333   0.4166667        13   14
  -0.8333333  -0.3333333   0.6666667        51   11
  -0.0833333   0.9166667  -0.5833333        69  -22
   0.6666667   0.1666667   0.1666667        30   -7
   0.4166667   0.4166667  -0.0833333        26  -14
  -0.5833333  -0.0833333   0.9166667        69   -4
  -0.8333333   0.1666667   0.6666667        58  -12
  -0.0833333  -0.5833333  -0.5833333        33   -7
   0.6666667   0.6666667   0.1666667        32   16
   0.6666667  -0.8333333   0.1666667        58  -13
   0.4166667  -0.5833333  -0.0833333        54   15
   0.1666667  -0.3333333  -0.3333333        16    6
  -0.0833333  -0.0833333  -0.5833333        29   16
  -0.0833333   0.4166667  -0.5833333        54    5
  -0.3333333   0.6666667  -0.8333333        51    5
   0.4166667  -0.0833333  -0.0833333        20   -6
   0.1666667   0.1666667  -0.3333333        10   14
  -0.1666667   0.5000000  -0.1666667        21    1
   0.5833333  -0.2500000   0.5833333        24    1
   0.3333333   0.0000000   0.3333333        27    1
   0.0833333   0.2500000   0.0833333         9    3
   0.0833333   0.7500000   0.0833333        36    3
   0.8333333   0.0000000   0.8333333        42    1
   0.5833333   0.2500000   0.5833333        24   -3
   0.3333333   0.5000000   0.3333333        12    3
  -0.6666667   0.0000000  -0.6666667        39   -1
   0.0833333  -0.7500000   0.0833333        36   -1
  -0.1666667  -0.5000000  -0.1666667        21   -3
  -0.4166667  -0.2500000  -0.4166667        15    3
  -0.4166667   0.2500000  -0.4166667        15   -1
   0.3333333  -0.5000000   0.3333333        12   -1
   0.0833333  -0.2500000   0.0833333         9   -1
  -0.1666667   0.0000000  -0.1666667        18   -1
  -0.4166667   0.2500000   0.0833333        45    6
  -0.6666667   0.5000000  -0.1666667        53  -20
   0.0833333  -0.2500000   0.5833333        50  -20
  -0.1666667   0.0000000   0.3333333        44  -14
  -0.1666667   0.5000000   0.3333333        46   12
   0.5833333  -0.2500000  -0.9166667        66   -2
  -0.6666667   1.0000000  -0.1666667        68   13
   0.0833333   0.2500000   0.5833333        50   18
   0.0833333   0.7500000   0.5833333        59  -24
   0.8333333  -0.0000000  -0.6666667        63  -11
   0.5833333   0.2500000  -0.9166667        66    4
  -0.6666667  -0.5000000  -0.1666667        53   18
  -0.6666667   0.0000000  -0.1666667        56   22
   0.0833333  -0.7500000   0.5833333        59   22
  -0.1666667  -0.5000000   0.3333333        46  -11
  -0.4166667  -0.2500000   0.0833333        45   -8
   0.3333333  -1.0000000  -0.6666667        65  -21
   0.0833333  -0.7500000  -0.9166667        62    6
  -0.1666667  -0.5000000   0.8333333        67    8
   0.5833333   0.7500000  -0.4166667        47  -14
   0.5833333  -0.7500000  -0.4166667        47   15
   0.3333333  -0.5000000  -0.6666667        48    6
  -0.9166667   0.7500000   0.0833333        62   19
   0.8333333   1.0000000  -0.1666667        61  -14
  -0.1666667   0.5000000   0.8333333        67   -6
  -0.4166667   0.7500000   0.5833333        47   21
  -0.6666667  -1.0000000   0.3333333        65   14
  -0.9166667  -0.7500000   0.0833333        62  -17
   0.0833333   0.7500000  -0.9166667        62   -8
  -0.1666667   1.0000000   0.8333333        61   21
  -0.4166667  -0.7500000   0.5833333        47  -23
   0.3333333   0.5000000  -0.6666667        48   -8
  -0.9166667  -0.2500000   0.5833333        66   11
  -0.1666667   1.0000000  -0.6666667        68  -22
   0.5833333   0.2500000   0.0833333        50   -7
   0.3333333   0.5000000  -0.1666667        46   -4
  -0.6666667   0.0000000   0.8333333        63    2
  -0.9166667   0.2500000   0.5833333        66  -12
  -0.1666667  -0.5000000  -0.6666667        53   -7
   0.5833333   0.7500000   0.0833333        59   16
   0.5833333  -0.7500000   0.0833333        59  -13
   0.3333333  -0.5000000  -0.1666667        46    2
   0.0833333  -0.2500000  -0.4166667        45   19
  -0.1666667   0.0000000  -0.6666667        56  -13
  -0.1666667   0.5000000  -0.6666667        53    5
   0.5833333  -0.2500000   0.0833333        50    5
   0.3333333   0.0000000  -0.1666667        44   21
   0.0833333   0.2500000  -0.4166667        45  -17
  -0.1666667   0.3333333   0.0000000        44    1
   0.5833333  -0.4166667   0.7500000        47    1
   0.3333333  -0.1666667   0.5000000        46   13
   0.0833333   0.0833333   0.2500000         9  -16
   0.0833333   0.5833333   0.2500000        50   -9
   0.8333333  -0.1666667   1.0000000        61    1
   0.5833333   0.0833333   0.7500000        59   -3
   0.3333333   0.3333333   0.5000000        12  -16
  -0.6666667  -0.1666667  -0.5000000        53   -9
  -0.9166667   0.0833333  -0.7500000        62   10
  -0.1666667  -0.6666667  -0.0000000        56   -3
  -0.4166667  -0.4166667  -0.2500000        15  -16
  -0.4166667   0.0833333  -0.2500000        45   22
  -0.6666667   0.3333333  -0.5000000        48   10
   0.0833333  -0.4166667   0.2500000        45   10
  -0.1666667  -0.1666667   0.0000000        18   14
  -0.4166667   0.0833333   0.2500000        45  -21
   0.3333333  -0.6666667   1.0000000        65   -5
  -0.9166667   0.5833333  -0.2500000        66  -20
  -0.1666667  -0.1666667   0.5000000        21  -14
  -0.1666667   0.3333333   0.5000000        46  -19
   0.5833333  -0.4166667  -0.7500000        47   -2
  -0.6666667   0.8333333   0.0000000        63   13
   0.0833333   0.0833333   0.7500000        36  -16
   0.0833333   0.5833333   0.7500000        59    7
   0.8333333  -0.1666667  -0.5000000        67   12
   0.5833333   0.0833333  -0.7500000        59    4
  -0.6666667  -0.6666667   0.0000000        39   14
  -0.6666667  -0.1666667  -0.0000000        56    7
   0.0833333  -0.9166667   0.7500000        62   22
  -0.1666667  -0.6666667   0.5000000        53  -23
  -0.4166667  -0.4166667   0.2500000        15   14
  -0.6666667  -0.1666667   0.5000000        53   11
   0.0833333  -0.9166667  -0.7500000        62  -21
  -0.1666667  -0.6666667  -1.0000000        68   -7
   0.5833333   0.5833333  -0.2500000        24  -14
   0.5833333  -0.9166667  -0.2500000        66   15
  -0.6666667   0.3333333   0.5000000        48  -12
  -0.9166667   0.5833333   0.2500000        66   19
   0.8333333   0.8333333   0.0000000        42  -14
   0.8333333  -0.6666667   0.0000000        63  -19
  -0.4166667   0.5833333   0.7500000        47   -6
   0.3333333  -0.1666667  -0.5000000        46  -15
   0.0833333   0.0833333  -0.7500000        36   14
   0.0833333   0.5833333  -0.7500000        59   -8
  -0.1666667   0.8333333  -1.0000000        61    5
   0.5833333   0.0833333  -0.2500000        50  -23
   0.3333333   0.3333333  -0.5000000        12   14
   0.0833333   0.5833333  -0.2500000        50   11
   0.8333333  -0.1666667   0.5000000        67  -10
   0.5833333   0.0833333   0.2500000        50   24
   0.3333333   0.3333333   0.0000000        27  -14
  -0.6666667  -0.1666667  -1.0000000        68    3
  -0.9166667   0.0833333   0.7500000        62  -12
  -0.1666667  -0.6666667  -0.5000000        53   24
   0.5833333   0.5833333   0.2500000        24   16
   0.5833333  -0.9166667   0.2500000        66  -13
  -0.6666667   0.3333333  -1.0000000        65   -1
   0.0833333  -0.4166667  -0.2500000        45  -12
  -0.1666667  -0.1666667  -0.5000000        21   16
  -0.1666667   0.3333333  -0.5000000        46   20
  -0.4166667   0.5833333  -0.7500000        47    5
   0.3333333  -0.1666667   0.0000000        44    5
   0.0833333   0.0833333  -0.2500000         9   14
  -0.2500000   0.4166667  -0.0833333        45    1
   0.5000000  -0.3333333   0.6666667        48    1
   0.2500000  -0.0833333   0.4166667        45   13
  -0.0000000   0.1666667   0.1666667        18   -6
   0.0000000   0.6666667   0.1666667        56   -9
   0.7500000  -0.0833333   0.9166667        62    1
   0.5000000   0.1666667   0.6666667        53   -3
   0.2500000   0.4166667   0.4166667        15    7
  -0.7500000  -0.0833333  -0.5833333        59   -9
  -1.0000000   0.1666667  -0.8333333        61   10
  -0.2500000  -0.5833333  -0.0833333        50   -3
  -0.5000000  -0.3333333  -0.3333333        12    7
  -0.5000000   0.1666667  -0.3333333        46   22
  -0.7500000   0.4166667  -0.5833333        47   10
   0.0000000  -0.3333333   0.1666667        44   10
  -0.2500000  -0.0833333  -0.0833333         9    7
  -0.5000000   0.1666667   0.1666667        21    6
   0.2500000  -0.5833333   0.9166667        66   -5
   1.0000000   0.6666667  -0.3333333        65   17
  -0.2500000  -0.0833333   0.4166667        45  -14
  -0.2500000   0.4166667   0.4166667        15   -6
  -0.5000000   0.6666667   0.1666667        53  -15
  -0.7500000   0.9166667  -0.0833333        62   13
   0.0000000   0.1666667   0.6666667        56   18
   0.0000000   0.6666667   0.6666667        39   -6
   0.7500000  -0.0833333  -0.5833333        59   12
   0.5000000   0.1666667  -0.8333333        67    4
  -0.7500000  -0.5833333  -0.0833333        59   18
  -0.7500000  -0.0833333  -0.0833333        36    7
   0.0000000  -0.8333333   0.6666667        63   22
   0.7500000   0.4166667  -0.5833333        47  -11
  -0.5000000  -0.3333333   0.1666667        46   -8
   0.2500000   0.9166667  -0.5833333        66   23
   0.0000000  -0.8333333  -0.8333333        42    6
  -0.2500000  -0.5833333   0.9166667        66    8
  -0.5000000  -0.3333333   0.6666667        48   -4
  -0.5000000   0.1666667   0.6666667        53    2
   0.2500000  -0.5833333  -0.5833333        24    6
   1.0000000   0.6666667   0.1666667        68  -18
   0.7500000   0.9166667  -0.0833333        62  -14
   0.7500000  -0.5833333  -0.0833333        59  -19
   0.5000000  -0.3333333  -0.3333333        12   -6
   0.2500000  -0.0833333  -0.5833333        50  -15
  -1.0000000  -0.8333333   0.1666667        61  -17
   0.0000000   0.6666667  -0.8333333        63    5
   0.7500000  -0.0833333  -0.0833333        36   -6
   0.5000000   0.1666667  -0.3333333        46  -23
  -0.7500000  -0.5833333   0.4166667        47  -17
   1.0000000  -0.3333333   0.6666667        65  -10
  -0.2500000   0.9166667  -0.5833333        66  -22
   0.5000000   0.1666667   0.1666667        21   -7
   0.2500000   0.4166667  -0.0833333        45   -4
  -0.7500000  -0.0833333   0.9166667        62   -4
   1.0000000   0.1666667   0.6666667        68    9
  -0.2500000  -0.5833333  -0.5833333        24   -7
   0.5000000   0.6666667   0.1666667        53   16
  -0.5000000   0.1666667  -0.8333333        67   -1
   0.2500000  -0.5833333  -0.0833333        50    2
   0.0000000  -0.3333333  -0.3333333        27    6
  -0.2500000  -0.0833333  -0.5833333        50   16
   0.7500000  -0.5833333   0.4166667        47   20
   0.5000000  -0.3333333   0.1666667        46    5
   0.2500000  -0.0833333  -0.0833333         9   -6
   0.0000000   0.1666667  -0.3333333        44  -17
  -0.3333333   0.5000000  -0.1666667        46    1
  -0.5833333   0.7500000  -0.4166667        47   13
   0.1666667   0.0000000   0.3333333        44   13
  -0.0833333   0.2500000   0.0833333         9   -2
  -0.0833333   0.7500000   0.0833333        36   -2
   0.6666667   0.0000000   0.8333333        63    1
  -0.5833333  -0.7500000  -0.4166667        47  -16
   0.1666667   0.5000000   0.3333333        46   -9
  -0.8333333   0.0000000  -0.6666667        63   -9
  -0.0833333  -0.7500000   0.0833333        36    4
  -0.3333333  -0.5000000  -0.1666667        46   -3
   0.4166667   0.7500000   0.5833333        47  -24
   0.4166667  -0.7500000   0.5833333        47   22
   0.1666667  -0.5000000   0.3333333        46   10
  -0.0833333  -0.2500000   0.0833333         9    4
  -0.3333333   0.0000000  -0.1666667        44   22
  -0.5833333   0.2500000   0.0833333        50    6
   0.1666667  -0.5000000   0.8333333        67   -5
  -0.0833333  -0.2500000   0.5833333        50   17
  -0.3333333   0.0000000   0.3333333        27    2
  -0.3333333   0.5000000   0.3333333        12   -2
  -0.5833333   0.7500000   0.0833333        59  -15
  -0.8333333   1.0000000  -0.1666667        61   13
  -0.0833333   0.2500000   0.5833333        50  -19
  -0.0833333   0.7500000   0.5833333        59   21
   0.6666667   0.0000000  -0.6666667        39   -2
  -0.5833333  -0.7500000   0.0833333        59   14
   0.1666667   0.5000000   0.8333333        67    7
   0.1666667  -1.0000000   0.8333333        61   22
  -0.0833333  -0.7500000   0.5833333        59  -23
  -0.3333333  -0.5000000   0.3333333        12    4
  -0.5833333  -0.2500000   0.0833333        50   -8
   0.1666667  -1.0000000  -0.6666667        68  -21
  -0.0833333  -0.7500000  -0.9166667        62   -7
   0.6666667   0.5000000  -0.1666667        53   17
  -0.5833333  -0.2500000   0.5833333        24   -4
  -0.5833333   0.2500000   0.5833333        24    2
   0.1666667  -0.5000000  -0.6666667        53    6
   0.9166667   0.7500000   0.0833333        62  -18
   0.6666667   1.0000000  -0.1666667        68  -14
   0.6666667  -0.5000000  -0.1666667        53  -19
   0.4166667  -0.2500000  -0.4166667        15   -2
   0.1666667   0.0000000  -0.6666667        56   14
   0.9166667  -0.7500000   0.0833333        62   20
  -0.0833333   0.7500000  -0.9166667        62    5
   0.6666667  -0.0000000  -0.1666667        56   21
   0.4166667   0.2500000  -0.4166667        15    4
   0.1666667   0.5000000  -0.6666667        53   -8
   0.9166667  -0.2500000   0.5833333        66  -10
  -0.3333333   1.0000000  -0.6666667        65  -22
   0.4166667   0.2500000   0.0833333        45   -7
   0.1666667   0.5000000  -0.1666667        21   -4
  -0.8333333   0.0000000   0.8333333        42    2
   0.9166667   0.2500000   0.5833333        66    9
  -0.3333333  -0.5000000  -0.6666667        48   -7
  -0.5833333  -0.2500000  -0.9166667        66    3
  -0.5833333   0.2500000  -0.9166667        66   -1
   0.1666667  -0.5000000  -0.1666667        21    2
  -0.0833333  -0.2500000  -0.4166667        45  -18
   0.6666667  -1.0000000   0.3333333        65  -13
  -0.3333333   0.5000000  -0.6666667        48    5
   0.4166667  -0.2500000   0.0833333        45    5
   0.1666667  -0.0000000  -0.1666667        18   -2
  -0.0833333   0.2500000  -0.4166667        45   20
  -0.1666667   0.5000000   0.0000000        49    1
   0.5833333  -0.2500000   0.7500000        52    1
   0.3333333   0.0000000   0.5000000        55    1
   0.0833333   0.2500000   0.2500000        17    7
  -0.9166667  -0.2500000  -0.7500000        57   -9
  -0.1666667  -1.0000000   0.0000000        64    1
   0.5833333   0.2500000   0.7500000        52   -3
   0.3333333   0.5000000   0.5000000        14    7
  -0.6666667   0.0000000  -0.5000000        60   -9
  -0.9166667   0.2500000  -0.7500000        57   10
  -0.1666667  -0.5000000   0.0000000        49   -3
  -0.4166667  -0.2500000  -0.2500000        11    7
  -0.4166667   0.2500000  -0.2500000        11   -5
   0.3333333  -0.5000000   0.5000000        14   -5
   0.0833333  -0.2500000   0.2500000        17   -5
  -0.1666667   0.0000000   0.0000000         8   -5
  -0.4166667   0.2500000   0.2500000        11    6
  -0.6666667   0.5000000   0.0000000        60   19
  -0.9166667   0.7500000  -0.2500000        57  -20
  -0.1666667   0.0000000   0.5000000        49  -14
  -0.1666667   0.5000000   0.5000000        25   -6
   0.5833333  -0.2500000  -0.7500000        52   -2
   0.3333333   0.0000000  -1.0000000        71   13
  -0.9166667  -0.7500000  -0.2500000        57   18
   0.0833333   0.7500000   0.7500000        38    7
   0.8333333   0.0000000  -0.5000000        70  -11
   0.5833333   0.2500000  -0.7500000        52    4
  -0.6666667  -0.5000000   0.0000000        60  -17
  -0.6666667   0.0000000   0.0000000        35   -5
   0.0833333  -0.7500000   0.7500000        38   -5
  -0.1666667  -0.5000000   0.5000000        25    8
  -0.4166667  -0.2500000   0.2500000        11   -8
  -0.6666667   0.0000000   0.5000000        60   11
   0.0833333  -0.7500000  -0.7500000        38    6
   0.8333333   0.5000000   0.0000000        70   17
   0.5833333   0.7500000  -0.2500000        52  -14
   0.5833333  -0.7500000  -0.2500000        52   15
   0.3333333  -0.5000000  -0.5000000        14    6
  -0.9166667   0.7500000   0.2500000        57   19
  -0.1666667   0.0000000   1.0000000        64  -13
   0.8333333  -0.5000000   0.0000000        70  -19
   0.5833333  -0.2500000  -0.2500000        22   -6
   0.3333333   0.0000000  -0.5000000        55   -2
  -0.9166667  -0.7500000   0.2500000        57  -17
   0.0833333   0.7500000  -0.7500000        38   -8
   0.8333333   0.0000000   0.0000000        40    5
   0.5833333   0.2500000  -0.2500000        22    8
   0.3333333   0.5000000  -0.5000000        14   -8
  -0.9166667  -0.2500000   0.7500000        57   11
   0.8333333   0.0000000   0.5000000        70    9
   0.5833333   0.2500000   0.2500000        22   -7
   0.3333333   0.5000000   0.0000000        55  -14
   0.3333333   1.0000000   0.0000000        71   -1
  -0.9166667   0.2500000   0.7500000        57  -12
  -0.1666667  -0.5000000  -0.5000000        25   -7
   0.5833333   0.7500000   0.2500000        52   16
   0.5833333  -0.7500000   0.2500000        52  -13
   0.3333333  -0.5000000  -0.0000000        55  -13
   0.0833333  -0.2500000  -0.2500000        17    6
  -0.1666667   0.0000000  -0.5000000        49  -13
  -0.1666667   0.5000000  -0.5000000        25    5
   0.5833333  -0.2500000   0.2500000        22    5
   0.3333333   0.0000000   0.0000000        19    5
   0.0833333   0.2500000  -0.2500000        17   -8
  -0.2500000   0.5833333  -0.0833333        50    1
   0.5000000  -0.1666667   0.6666667        53    1
   0.2500000   0.0833333   0.4166667        45  -16
   0.0000000   0.3333333   0.1666667        44   -9
  -1.0000000  -0.1666667  -0.8333333        61   -9
   0.7500000   0.0833333   0.9166667        62   -3
   0.5000000   0.3333333   0.6666667        48   -3
  -0.7500000  -0.4166667  -0.5833333        47   -9
  -0.7500000   0.0833333  -0.5833333        59   10
   0.0000000  -0.6666667   0.1666667        56   10
  -0.2500000  -0.4166667  -0.0833333        45   -3
  -0.5000000  -0.1666667  -0.3333333        46  -24
  -0.5000000   0.3333333  -0.3333333        12   -5
   0.2500000  -0.4166667   0.4166667        15   -5
   0.0000000  -0.1666667   0.1666667        18   -5
  -0.2500000   0.0833333  -0.0833333         9   -5
  -0.5000000   0.3333333   0.1666667        46    6
  -0.7500000   0.5833333  -0.0833333        59  -20
  -0.0000000  -0.1666667   0.6666667        56   17
  -0.2500000   0.0833333   0.4166667        45   15
   0.7500000  -0.4166667  -0.5833333        47   12
   0.5000000  -0.1666667  -0.8333333        67   -2
  -0.7500000  -0.9166667  -0.0833333        62  -16
  -1.0000000  -0.6666667  -0.3333333        65   18
  -0.0000000   0.8333333   0.6666667        63   21
   0.7500000   0.0833333  -0.5833333        59  -11
  -0.5000000  -0.6666667   0.1666667        53   14
   0.2500000   0.5833333   0.9166667        66    7
  -0.7500000   0.0833333  -0.0833333        36   -5
   0.0000000  -0.6666667   0.6666667        39   -5
  -0.2500000  -0.4166667   0.4166667        15    8
  -0.5000000  -0.1666667   0.1666667        21   -8
   0.2500000  -0.9166667  -0.5833333        66  -21
   0.0000000  -0.6666667  -0.8333333        63    6
   0.7500000   0.5833333  -0.0833333        59   17
  -0.5000000  -0.1666667   0.6666667        53   -4
  -0.5000000   0.3333333   0.6666667        48    2
  -0.7500000   0.5833333   0.4166667        47   19
   1.0000000   0.8333333   0.1666667        61  -18
   0.7500000  -0.9166667  -0.0833333        62   15
  -0.2500000   0.5833333   0.9166667        66   -6
   0.5000000  -0.1666667  -0.3333333        46   21
   0.2500000   0.0833333  -0.5833333        50   14
  -1.0000000  -0.6666667   0.1666667        68  -17
   0.0000000   0.8333333  -0.8333333        42    5
   0.7500000   0.0833333  -0.0833333        36    8
   0.5000000   0.3333333  -0.3333333        12    8
   0.2500000   0.5833333  -0.5833333        24   -8
   1.0000000  -0.1666667   0.6666667        68  -10
  -0.2500000  -0.9166667  -0.5833333        66   24
   0.5000000   0.3333333   0.1666667        46   -7
   0.2500000   0.5833333  -0.0833333        50   -4
  -0.7500000   0.0833333   0.9166667        62    2
   1.0000000   0.3333333   0.6666667        65    9
   0.7500000   0.5833333   0.4166667        47  -18
  -0.5000000  -0.1666667  -0.8333333        67    3
   0.5000000  -0.6666667   0.1666667        53  -13
   0.2500000  -0.4166667  -0.0833333        45    2
   0.0000000  -0.1666667  -0.3333333        44  -18
  -0.2500000   0.0833333  -0.5833333        50  -13
  -0.2500000   0.5833333  -0.5833333        24    5
   0.5000000  -0.1666667   0.1666667        21    5
   0.2500000   0.0833333  -0.0833333         9    8
   0.0000000   0.3333333  -0.3333333        27    5
   0.6666667  -0.3333333   0.8333333        51    1
   0.4166667  -0.0833333   0.5833333        54    1
   0.1666667   0.1666667   0.3333333        10  -16
  -0.0833333   0.4166667   0.0833333        20   -2
   0.9166667  -0.0833333  -0.9166667        41   -2
   0.6666667   0.1666667   0.8333333        58   -3
  -0.5833333  -0.5833333  -0.4166667        13  -16
  -0.8333333  -0.3333333  -0.6666667        51   -9
  -0.8333333   0.1666667  -0.6666667        58   10
  -0.0833333  -0.5833333   0.0833333        29    4
  -0.3333333  -0.3333333  -0.1666667        16  -16
  -0.5833333  -0.0833333  -0.4166667        54   -9
   0.4166667  -0.5833333   0.5833333        13   -5
   0.1666667  -0.3333333   0.3333333        16   -5
  -0.0833333  -0.0833333   0.0833333         2    4
  -0.3333333   0.1666667  -0.1666667        10   -5
  -0.5833333   0.4166667   0.0833333        54   19
  -0.8333333   0.6666667  -0.1666667        58  -20
  -0.0833333  -0.0833333   0.5833333        29  -14
  -0.3333333   0.1666667   0.3333333        16    2
   0.6666667  -0.3333333  -0.6666667        23   -2
  -0.5833333   0.9166667   0.0833333        69  -15
  -0.8333333  -0.8333333  -0.1666667        37  -16
  -0.0833333   0.4166667   0.5833333        54   -6
  -0.0833333   0.9166667   0.5833333        69   21
   0.6666667   0.1666667  -0.6666667        32    4
  -0.5833333  -0.5833333   0.0833333        33   14
   0.1666667   0.6666667   0.8333333        58    7
   0.1666667  -0.8333333   0.8333333        37   -5
  -0.0833333  -0.5833333   0.5833333        33    8
  -0.3333333  -0.3333333   0.3333333         5    4
  -0.5833333  -0.0833333   0.0833333        29   -8
   0.1666667  -0.8333333  -0.6666667        58  -21
  -0.0833333  -0.5833333  -0.9166667        69   -7
   0.6666667   0.6666667  -0.1666667        32  -14
  -0.5833333  -0.0833333   0.5833333        33   -4
  -0.5833333   0.4166667   0.5833333        13    2
  -0.8333333   0.6666667   0.3333333        51   19
   0.9166667   0.9166667   0.0833333        41   16
   0.6666667  -0.8333333  -0.1666667        58   15
  -0.3333333   0.6666667   0.8333333        51   -6
   0.4166667  -0.0833333  -0.4166667        26   -2
   0.1666667   0.1666667  -0.6666667        30   14
   0.9166667  -0.5833333   0.0833333        69   20
  -0.0833333   0.9166667  -0.9166667        41    5
   0.6666667   0.1666667  -0.1666667        30    8
   0.4166667   0.4166667  -0.4166667         6   -4
   0.1666667   0.6666667  -0.6666667        32   -8
   0.9166667  -0.0833333   0.5833333        69  -10
  -0.3333333  -0.8333333  -0.6666667        51   24
   0.4166667   0.4166667   0.0833333        26   16
   0.1666667   0.6666667  -0.1666667        30   -4
  -0.8333333   0.1666667   0.8333333        37    2
  -0.0833333  -0.5833333  -0.4166667        54   24
   0.6666667   0.6666667   0.3333333        23   16
  -0.5833333  -0.0833333  -0.9166667        69    3
   0.4166667  -0.5833333   0.0833333        54  -13
   0.1666667  -0.3333333  -0.1666667        10    2
  -0.0833333  -0.0833333  -0.4166667        20   16
   0.6666667  -0.8333333   0.3333333        51  -13
  -0.3333333   0.6666667  -0.6666667        23    5
   0.4166667  -0.0833333   0.0833333        20    5
   0.1666667   0.1666667  -0.1666667         3   -4
  -0.0833333   0.4166667  -0.4166667        26    5
  -0.1666667   0.6666667  -0.0000000        56    1
   0.5833333  -0.0833333   0.7500000        59    1
   0.3333333   0.1666667   0.5000000        46  -16
   0.0833333   0.4166667   0.2500000        45   -9
  -0.9166667  -0.0833333  -0.7500000        62   -9
   0.8333333   0.1666667   1.0000000        61   -3
   0.5833333   0.4166667   0.7500000        47   -3
  -0.6666667  -0.3333333  -0.5000000        48   -9
  -0.6666667   0.1666667  -0.5000000        53   10
   0.0833333  -0.5833333   0.2500000        50   10
  -0.1666667  -0.3333333   0.0000000        44   -3
  -0.4166667  -0.0833333  -0.2500000        45  -24
  -0.4166667   0.4166667  -0.2500000        15   13
   0.3333333  -0.3333333   0.5000000        12   13
   0.0833333  -0.0833333   0.2500000         9   13
  -0.1666667   0.1666667  -0.0000000        18   13
  -0.4166667   0.4166667   0.2500000        15  -15
  -0.6666667   0.6666667   0.0000000        39   13
   0.0833333  -0.0833333   0.7500000        36   13
  -0.1666667   0.1666667   0.5000000        21   15
  -0.1666667   0.6666667   0.5000000        53   21
   0.5833333  -0.0833333  -0.7500000        59   -2
  -0.6666667  -0.8333333   0.0000000        63   14
  -0.9166667  -0.5833333  -0.2500000        66   18
   0.0833333   0.9166667   0.7500000        62  -24
   0.8333333   0.1666667  -0.5000000        67  -11
   0.5833333   0.4166667  -0.7500000        47    4
   0.3333333   0.6666667   1.0000000        65    7
  -0.6666667   0.1666667  -0.0000000        56   -5
   0.0833333  -0.5833333   0.7500000        59   -5
  -0.1666667  -0.3333333   0.5000000        46   17
  -0.4166667  -0.0833333   0.2500000        45   23
  -0.6666667   0.1666667   0.5000000        53  -12
   0.0833333  -0.5833333  -0.7500000        59    6
   0.8333333   0.6666667   0.0000000        63   17
   0.5833333   0.9166667  -0.2500000        66  -14
   0.5833333  -0.5833333  -0.2500000        24   15
   0.3333333  -0.3333333  -0.5000000        12  -15
   0.0833333  -0.0833333  -0.7500000        36  -15
   0.8333333  -0.8333333   0.0000000        42  -13
  -0.1666667   0.6666667  -1.0000000        68    5
   0.5833333  -0.0833333  -0.2500000        50   21
   0.3333333   0.1666667  -0.5000000        46   14
  -0.9166667  -0.5833333   0.2500000        66  -17
   0.0833333   0.9166667  -0.7500000        62   23
  -0.1666667  -0.8333333  -1.0000000        61   -7
  -0.4166667  -0.5833333   0.7500000        47    8
  -0.6666667  -0.3333333   0.5000000        48   11
  -0.9166667  -0.0833333   0.7500000        62   11
   0.8333333   0.1666667   0.5000000        67    9
  -0.4166667  -0.5833333  -0.7500000        47   -7
  -0.6666667  -0.3333333  -1.0000000        65    3
  -0.6666667   0.1666667  -1.0000000        68   -1
   0.0833333  -0.5833333  -0.2500000        50  -12
  -0.1666667  -0.3333333  -0.5000000        46  -18
   0.5833333   0.9166667   0.2500000        66   16
   0.5833333  -0.5833333   0.2500000        24  -13
   0.3333333  -0.3333333   0.0000000        27  -13
   0.0833333  -0.0833333  -0.2500000         9  -15
  -0.1666667   0.1666667  -0.5000000        21  -13
  -0.1666667   0.6666667  -0.5000000        53  -22
   0.5833333  -0.0833333   0.2500000        50  -22
   0.3333333   0.1666667   0.0000000        44   -7
   0.0833333   0.4166667  -0.2500000        45   11
   0.7500000  -0.2500000   0.9166667        57    1
   0.5000000   0.0000000   0.6666667        60    1
   0.2500000   0.2500000   0.4166667        11  -16
   0.0000000   0.5000000   0.1666667        49   -9
   0.0000000  -1.0000000   0.1666667        64   -9
   0.7500000   0.2500000   0.9166667        57   -3
  -0.5000000  -0.5000000  -0.3333333        14  -16
  -0.7500000  -0.2500000  -0.5833333        52   -9
  -0.7500000   0.2500000  -0.5833333        52   10
   0.0000000  -0.5000000   0.1666667        49   10
  -0.2500000  -0.2500000  -0.0833333        17  -16
  -0.5000000   0.0000000  -0.3333333        55   -9
  -0.5000000   0.5000000  -0.3333333        14   13
   0.2500000  -0.2500000   0.4166667        11   13
   0.0000000   0.0000000   0.1666667         8   13
  -0.2500000   0.2500000  -0.0833333        17   13
  -0.5000000   0.5000000   0.1666667        25  -15
  -0.7500000   0.7500000  -0.0833333        38   13
   0.0000000   0.0000000   0.6666667        35   13
  -0.2500000   0.2500000   0.4166667        11   15
   0.7500000  -0.2500000  -0.5833333        52   12
   0.5000000   0.0000000  -0.8333333        70   -2
  -0.7500000  -0.7500000  -0.0833333        38  -16
  -0.0000000   0.5000000   0.6666667        60   -6
  -1.0000000   0.0000000  -0.3333333        71   21
   0.7500000   0.2500000  -0.5833333        52  -11
  -0.5000000  -0.5000000   0.1666667        25   14
   0.2500000   0.7500000   0.9166667        57    7
   0.2500000  -0.7500000   0.9166667        57   -5
   0.0000000  -0.5000000   0.6666667        60   -5
  -0.2500000  -0.2500000   0.4166667        11  -14
  -0.5000000   0.0000000   0.1666667        49  -21
   0.2500000  -0.7500000  -0.5833333        52  -21
  -0.0000000  -0.5000000  -0.8333333        70    6
   0.7500000   0.7500000  -0.0833333        38  -14
  -0.5000000   0.0000000   0.6666667        60    2
   0.5000000  -0.5000000  -0.3333333        14   15
   0.2500000  -0.2500000  -0.5833333        22  -15
   0.0000000   0.0000000  -0.8333333        40  -13
   0.7500000  -0.7500000  -0.0833333        38   15
  -0.2500000   0.7500000   0.9166667        57   -6
   0.5000000  -0.0000000  -0.3333333        55  -11
   0.2500000   0.2500000  -0.5833333        22   14
   0.0000000   0.5000000  -0.8333333        70    5
   1.0000000   0.0000000   0.1666667        64  -21
  -0.2500000  -0.7500000   0.9166667        57    8
   0.5000000   0.5000000  -0.3333333        14  -14
   0.2500000   0.7500000  -0.5833333        52   23
   0.0000000   1.0000000  -0.3333333        71    9
  -0.2500000  -0.7500000  -0.5833333        52   24
   0.5000000   0.5000000   0.1666667        25   16
  -0.7500000  -0.2500000   0.9166667        57   -4
  -0.7500000   0.2500000   0.9166667        57    2
  -0.0000000  -0.5000000  -0.3333333        55  -21
  -0.2500000  -0.2500000  -0.5833333        22   16
  -0.5000000   0.0000000  -0.8333333        70   -1
   0.5000000  -0.5000000   0.1666667        25  -13
   0.2500000  -0.2500000  -0.0833333        17   15
   0.0000000   0.0000000  -0.3333333        19  -13
  -0.2500000   0.2500000  -0.5833333        22  -13
  -0.2500000   0.7500000  -0.5833333        52  -22
   0.5000000   0.0000000   0.1666667        49  -22
   0.2500000   0.2500000  -0.0833333        17  -14
   0.0000000   0.5000000  -0.3333333        55  -22
   0.6666667  -0.1666667   0.8333333        58    1
   0.4166667   0.0833333   0.5833333        54   -3
   0.1666667   0.3333333   0.3333333        16    7
  -0.0833333   0.5833333   0.0833333        29   -2
   0.9166667   0.0833333  -0.9166667        41    4
   0.6666667   0.3333333   0.8333333        51   -3
   0.4166667   0.5833333   0.5833333        13    7
  -0.8333333  -0.1666667  -0.6666667        58   -9
  -0.8333333   0.3333333  -0.6666667        51   10
  -0.0833333  -0.4166667   0.0833333        20    4
  -0.3333333  -0.1666667  -0.1666667        10    7
  -0.5833333   0.0833333  -0.4166667        54   10
  -0.5833333   0.5833333  -0.4166667        13   13
   0.1666667  -0.1666667   0.3333333        10   13
  -0.0833333   0.0833333   0.0833333         2   -2
  -0.3333333   0.3333333  -0.1666667        16   13
  -0.5833333   0.5833333   0.0833333        33  -15
  -0.8333333   0.8333333  -0.1666667        37   13
  -0.0833333   0.0833333   0.5833333        29   15
  -0.3333333   0.3333333   0.3333333         5   -2
   0.6666667  -0.1666667  -0.6666667        32   -2
  -0.5833333  -0.9166667   0.0833333        69   14
  -0.8333333  -0.6666667  -0.1666667        58   18
  -0.0833333   0.5833333   0.5833333        33   -6
  -0.0833333  -0.9166667   0.5833333        69  -23
   0.6666667   0.3333333  -0.6666667        23    4
  -0.5833333  -0.4166667   0.0833333        54  -17
   0.1666667   0.8333333   0.8333333        37    7
   0.1666667  -0.6666667   0.8333333        58   -5
  -0.0833333  -0.4166667   0.5833333        54    8
  -0.3333333  -0.1666667   0.3333333        16   -4
  -0.5833333   0.0833333   0.0833333        29    6
   0.1666667  -0.6666667  -0.6666667        32    6
   0.9166667   0.5833333   0.0833333        69  -18
   0.6666667   0.8333333  -0.1666667        58  -14
  -0.5833333   0.0833333   0.5833333        33    2
   0.4166667  -0.4166667  -0.4166667         6    2
   0.1666667  -0.1666667  -0.6666667        30  -15
   0.9166667  -0.9166667   0.0833333        41  -13
   0.6666667  -0.6666667  -0.1666667        32   15
   0.6666667  -0.1666667  -0.1666667        30   -6
   0.4166667   0.0833333  -0.4166667        26    4
  -0.8333333  -0.6666667   0.3333333        51  -17
  -0.0833333   0.5833333  -0.9166667        69    5
  -0.0833333  -0.9166667  -0.9166667        41   -7
  -0.3333333  -0.6666667   0.8333333        51    8
  -0.5833333  -0.4166667   0.5833333        13   -4
   0.1666667   0.8333333  -0.6666667        58   23
   0.9166667   0.0833333   0.5833333        69    9
  -0.3333333  -0.6666667  -0.6666667        23   -7
   0.4166667   0.5833333   0.0833333        54   16
  -0.8333333  -0.1666667   0.8333333        37   -4
   0.1666667  -0.6666667  -0.1666667        30    2
  -0.0833333  -0.4166667  -0.4166667        26   -7
   0.6666667   0.8333333   0.3333333        51   16
  -0.5833333   0.0833333  -0.9166667        69   -1
   0.4166667  -0.4166667   0.0833333        26  -13
   0.1666667  -0.1666667  -0.1666667         3    2
  -0.0833333   0.0833333  -0.4166667        20  -13
   0.6666667  -0.6666667   0.3333333        23  -13
  -0.3333333   0.8333333  -0.6666667        51  -22
   0.4166667   0.0833333   0.0833333        20   -7
   0.1666667   0.3333333  -0.1666667        10   -4
  -0.0833333   0.5833333  -0.4166667        54  -22
   0.6666667  -0.3333333   1.0000000        65    1
  -0.5833333   0.9166667  -0.2500000        66   13
   0.1666667   0.1666667   0.5000000        21  -16
  -0.0833333   0.4166667   0.2500000        45   12
   0.9166667  -0.0833333  -0.7500000        62   12
   0.6666667   0.1666667   1.0000000        68   -3
  -0.5833333  -0.5833333  -0.2500000        24  -16
   0.1666667   0.6666667   0.5000000        53  -24
  -0.8333333   0.1666667  -0.5000000        67   10
  -0.0833333  -0.5833333   0.2500000        50  -11
  -0.3333333  -0.3333333   0.0000000        27   14
  -0.5833333  -0.0833333  -0.2500000        50  -24
   0.4166667  -0.5833333   0.7500000        47   -5
   0.1666667  -0.3333333   0.5000000        46  -20
  -0.0833333  -0.0833333   0.2500000         9  -14
  -0.3333333   0.1666667   0.0000000        44   -5
   0.4166667  -0.5833333  -0.7500000        47    6
  -0.8333333   0.6666667   0.0000000        63   19
  -0.0833333  -0.0833333   0.7500000        36  -14
  -0.3333333   0.1666667   0.5000000        46   15
   0.6666667  -0.3333333  -0.5000000        48   12
  -0.5833333   0.9166667   0.2500000        66  -15
  -0.8333333  -0.8333333   0.0000000        42   14
   0.9166667  -0.5833333  -0.2500000        66  -19
  -0.0833333   0.9166667   0.7500000        62   21
   0.6666667   0.1666667  -0.5000000        53  -11
  -0.5833333  -0.5833333   0.2500000        24   14
   0.1666667   0.6666667   1.0000000        68    7
   0.1666667  -0.8333333   1.0000000        61   -5
  -0.0833333  -0.5833333   0.7500000        59    8
  -0.3333333  -0.3333333   0.5000000        12  -14
  -0.5833333  -0.0833333   0.2500000        50   23
  -0.8333333   0.1666667   0.5000000        67  -12
  -0.0833333  -0.5833333  -0.7500000        59   -7
   0.6666667   0.6666667   0.0000000        39  -14
  -0.5833333  -0.0833333   0.7500000        59   -4
  -0.5833333   0.4166667   0.7500000        47    2
   0.1666667  -0.3333333  -0.5000000        46   19
  -0.0833333  -0.0833333  -0.7500000        36   16
   0.6666667  -0.8333333   0.0000000        63  -13
  -0.3333333   0.6666667  -1.0000000        65    5
   0.4166667  -0.0833333  -0.2500000        45   21
   0.1666667   0.1666667  -0.5000000        21   14
   0.9166667  -0.5833333   0.2500000        66   20
  -0.0833333   0.9166667  -0.7500000        62  -22
   0.6666667   0.1666667   0.0000000        56   -7
   0.4166667   0.4166667  -0.2500000        15  -14
   0.1666667   0.6666667  -0.5000000        53   23
   0.9166667  -0.0833333   0.7500000        62  -10
   0.6666667   0.1666667   0.5000000        53    9
   0.4166667   0.4166667   0.2500000        15   16
   0.1666667   0.6666667   0.0000000        56    3
  -0.8333333   0.1666667  -1.0000000        61   -1
  -0.0833333  -0.5833333  -0.2500000        50    9
  -0.3333333  -0.3333333  -0.5000000        12   16
  -0.5833333  -0.0833333  -0.7500000        59    3
  -0.5833333   0.4166667  -0.7500000        47   -1
   0.1666667  -0.3333333   0.0000000        44   -1
  -0.0833333  -0.0833333  -0.2500000         9   16
  -0.3333333   0.1666667  -0.5000000        46  -13
   0.6666667  -0.3333333   0.5000000        48  -10
   0.4166667  -0.0833333   0.2500000        45  -22
   0.1666667   0.1666667  -0.0000000        18  -14
  -0.0833333   0.4166667  -0.2500000        45  -10
   0.5833333  -0.2500000   0.9166667        66    1
  -0.6666667   1.0000000  -0.3333333        65   13
   0.0833333   0.2500000   0.4166667        45   18
  -0.1666667   0.5000000   0.1666667        21   -2
   0.8333333   0.0000000  -0.8333333        42   -2
   0.5833333   0.2500000   0.9166667        66   -3
   0.3333333   0.5000000   0.6666667        48    7
  -0.9166667  -0.2500000  -0.5833333        66   -9
  -0.9166667   0.2500000  -0.5833333        66   10
  -0.1666667  -0.5000000   0.1666667        21    4
  -0.4166667  -0.2500000  -0.0833333        45    7
   0.3333333  -1.0000000   0.6666667        65   22
   0.3333333  -0.5000000   0.6666667        48   -5
   0.0833333  -0.2500000   0.4166667        45  -20
  -0.1666667   0.0000000   0.1666667        18    2
  -0.4166667   0.2500000  -0.0833333        45   -5
  -0.6666667   0.5000000   0.1666667        53   19
  -0.9166667   0.7500000  -0.0833333        62  -20
  -0.1666667  -0.0000000   0.6666667        56  -14
  -0.4166667   0.2500000   0.4166667        15    2
   0.5833333  -0.2500000  -0.5833333        24   -2
  -0.6666667  -1.0000000   0.1666667        68   14
  -0.9166667  -0.7500000  -0.0833333        62   18
  -0.1666667   0.5000000   0.6666667        53   -6
  -0.1666667   1.0000000   0.6666667        68   21
   0.5833333   0.2500000  -0.5833333        24    4
  -0.6666667  -0.5000000   0.1666667        53  -17
   0.0833333   0.7500000   0.9166667        62    7
   0.0833333  -0.7500000   0.9166667        62   -5
  -0.1666667  -0.5000000   0.6666667        53    8
  -0.4166667  -0.2500000   0.4166667        15   -4
  -0.6666667   0.0000000   0.1666667        56  -21
   0.0833333  -0.7500000  -0.5833333        59  -21
  -0.1666667  -0.5000000  -0.8333333        67   -7
   0.5833333   0.7500000  -0.0833333        59  -14
  -0.6666667   0.0000000   0.6666667        39    2
   0.3333333  -0.5000000  -0.3333333        12    2
   0.0833333  -0.2500000  -0.5833333        50   19
   0.8333333  -1.0000000   0.1666667        61  -13
   0.5833333  -0.7500000  -0.0833333        59   15
   0.5833333  -0.2500000  -0.0833333        50   -6
   0.3333333   0.0000000  -0.3333333        27   -2
   0.0833333   0.2500000  -0.5833333        50  -17
  -0.1666667   0.5000000  -0.8333333        67    5
  -0.1666667   1.0000000  -0.8333333        61  -22
   0.5833333   0.2500000  -0.0833333        50    8
   0.3333333   0.5000000  -0.3333333        12   -4
   0.0833333   0.7500000  -0.5833333        59   23
   0.8333333   0.0000000   0.6666667        63    9
  -0.4166667  -0.7500000  -0.5833333        47   24
   0.3333333   0.5000000   0.1666667        46    3
   0.0833333   0.7500000  -0.0833333        36   -4
   0.0833333  -0.7500000  -0.0833333        36    2
  -0.1666667  -0.5000000  -0.3333333        46    9
   0.5833333   0.7500000   0.4166667        47   16
  -0.6666667   0.0000000  -0.8333333        63   -1
   0.3333333  -0.5000000   0.1666667        46   -1
   0.0833333  -0.2500000  -0.0833333         9    2
  -0.1666667   0.0000000  -0.3333333        44  -13
   0.5833333  -0.7500000   0.4166667        47  -13
  -0.4166667   0.7500000  -0.5833333        47  -22
   0.3333333   0.0000000   0.1666667        44  -22
   0.0833333   0.2500000  -0.0833333         9   -4
  -0.1666667   0.5000000  -0.3333333        46  -10
   0.5000000  -0.1666667   0.8333333        67    1
   0.2500000   0.0833333   0.5833333        50  -16
   0.0000000   0.3333333   0.3333333        27   -6
  -0.2500000   0.5833333   0.0833333        50   -2
   0.7500000   0.0833333  -0.9166667        62    4
  -0.5000000  -0.6666667  -0.1666667        53  -16
   0.2500000   0.5833333   0.5833333        24    7
  -1.0000000  -0.1666667  -0.6666667        68   -9
  -1.0000000   0.3333333  -0.6666667        65   10
  -0.2500000  -0.4166667   0.0833333        45    4
  -0.5000000  -0.1666667  -0.1666667        21    7
   0.2500000  -0.9166667   0.5833333        66   22
  -0.7500000   0.5833333  -0.4166667        47  -20
   0.0000000  -0.1666667   0.3333333        44   17
  -0.2500000   0.0833333   0.0833333         9    6
  -0.5000000   0.3333333  -0.1666667        46   -5
  -0.7500000   0.5833333   0.0833333        59   19
   1.0000000   0.8333333  -0.1666667        61   17
  -0.2500000   0.0833333   0.5833333        50   15
  -0.5000000   0.3333333   0.3333333        12    6
   0.5000000  -0.1666667  -0.6666667        53   -2
  -0.7500000  -0.9166667   0.0833333        62   14
  -1.0000000  -0.6666667  -0.1666667        68   18
  -0.2500000   0.5833333   0.5833333        24   -6
  -0.2500000  -0.9166667   0.5833333        66  -23
   0.5000000   0.3333333  -0.6666667        48    4
   0.2500000   0.5833333  -0.9166667        66   -8
   0.0000000   0.8333333   0.8333333        42   -6
   0.0000000  -0.6666667   0.8333333        63   -5
   0.7500000   0.5833333  -0.4166667        47   17
  -0.5000000  -0.1666667   0.3333333        46   23
  -0.7500000   0.0833333   0.0833333        36    6
   0.0000000  -0.6666667  -0.6666667        39    6
   0.7500000   0.5833333   0.0833333        59  -18
  -0.5000000  -0.1666667   0.8333333        67   -4
  -0.7500000   0.0833333   0.5833333        59  -12
   0.2500000  -0.4166667  -0.4166667        15    6
  -0.0000000  -0.1666667  -0.6666667        56  -18
   0.7500000  -0.9166667   0.0833333        62  -13
   0.5000000  -0.6666667  -0.1666667        53   15
   0.5000000  -0.1666667  -0.1666667        21   -6
   0.2500000   0.0833333  -0.4166667        45   14
  -1.0000000  -0.6666667   0.3333333        65  -17
  -0.2500000   0.5833333  -0.9166667        66    5
   0.7500000   0.0833333   0.0833333        36   -7
   0.5000000   0.3333333  -0.1666667        46    8
  -0.7500000  -0.4166667   0.5833333        47   11
   0.0000000   0.8333333  -0.6666667        63  -22
   0.7500000   0.0833333   0.5833333        59    9
   0.5000000   0.3333333   0.3333333        12   -7
   0.2500000   0.5833333   0.0833333        50    3
   1.0000000  -0.1666667   0.8333333        61  -10
  -0.0000000  -0.6666667  -0.1666667        56    9
  -0.2500000  -0.4166667  -0.4166667        15   -7
  -0.5000000  -0.1666667  -0.6666667        53    3
  -0.7500000   0.0833333  -0.9166667        62   -1
   0.2500000  -0.4166667   0.0833333        45   -1
   0.0000000  -0.1666667  -0.1666667        18    6
  -0.2500000   0.0833333  -0.4166667        45  -13
  -0.5000000   0.3333333  -0.6666667        48   -1
   0.5000000  -0.1666667   0.3333333        46  -22
   0.2500000   0.0833333   0.0833333         9   -7
   0.0000000   0.3333333  -0.1666667        44  -10
   0.7500000  -0.4166667   0.5833333        47  -10
   0.6666667  -0.1666667   1.0000000        68    1
  -0.5833333  -0.9166667  -0.2500000        66  -16
   0.1666667   0.3333333   0.5000000        46   18
  -0.0833333   0.5833333   0.2500000        50   12
   0.9166667   0.0833333  -0.7500000        62  -11
   0.6666667   0.3333333   1.0000000        65   -3
   0.4166667   0.5833333   0.7500000        47    7
  -0.8333333  -0.1666667  -0.5000000        67   -9
   0.1666667  -0.6666667   0.5000000        53   22
  -0.0833333  -0.4166667   0.2500000        45  -11
  -0.3333333  -0.1666667   0.0000000        44    7
  -0.5833333   0.0833333  -0.2500000        50   22
  -0.5833333   0.5833333  -0.2500000        24   13
   0.1666667  -0.1666667   0.5000000        21   13
  -0.0833333   0.0833333   0.2500000         9   15
  -0.3333333   0.3333333   0.0000000        27   13
  -0.5833333   0.5833333   0.2500000        24  -15
  -0.8333333   0.8333333   0.0000000        42   13
  -0.0833333   0.0833333   0.7500000        36   15
  -0.3333333   0.3333333   0.5000000        12   15
   0.6666667  -0.1666667  -0.5000000        53   12
  -0.5833333  -0.9166667   0.2500000        66   14
  -0.8333333  -0.6666667   0.0000000        63  -17
  -0.0833333   0.5833333   0.7500000        59   -6
  -0.0833333  -0.9166667   0.7500000        62  -23
   0.6666667   0.3333333  -0.5000000        48  -11
   0.4166667   0.5833333  -0.7500000        47   -8
   0.1666667   0.8333333   1.0000000        61    7
   0.1666667  -0.6666667   1.0000000        68   -5
   0.9166667   0.5833333  -0.2500000        66   17
  -0.3333333  -0.1666667   0.5000000        46  -14
  -0.5833333   0.0833333   0.2500000        50  -21
   0.1666667  -0.6666667  -0.5000000        53  -21
   0.9166667   0.5833333   0.2500000        66  -18
   0.6666667   0.8333333   0.0000000        63  -14
  -0.5833333   0.0833333   0.7500000        59    2
   0.4166667  -0.4166667  -0.2500000        15   15
   0.1666667  -0.1666667  -0.5000000        21  -15
  -0.0833333   0.0833333  -0.7500000        36  -13
   0.6666667  -0.6666667   0.0000000        39  -13
   0.6666667  -0.1666667   0.0000000        56    5
   0.4166667   0.0833333  -0.2500000        45  -23
   0.1666667   0.3333333  -0.5000000        46  -17
  -0.0833333   0.5833333  -0.7500000        59    5
  -0.0833333  -0.9166667  -0.7500000        62   24
  -0.3333333  -0.6666667  -1.0000000        65   -7
  -0.5833333  -0.4166667   0.7500000        47   -4
  -0.8333333  -0.1666667   0.5000000        67   11
   0.9166667   0.0833333   0.7500000        62    9
   0.6666667   0.3333333   0.5000000        48    9
  -0.5833333  -0.4166667  -0.7500000        47    3
  -0.8333333  -0.1666667  -1.0000000        61    3
   0.1666667  -0.6666667   0.0000000        56   -1
  -0.0833333  -0.4166667  -0.2500000        45    9
  -0.3333333  -0.1666667  -0.5000000        46   16
  -0.5833333   0.0833333  -0.7500000        59   -1
   0.4166667  -0.4166667   0.2500000        15  -13
   0.1666667  -0.1666667   0.0000000        18  -13
  -0.0833333   0.0833333  -0.2500000         9  -13
  -0.3333333   0.3333333  -0.5000000        12  -13
   0.6666667  -0.1666667   0.5000000        53  -10
   0.4166667   0.0833333   0.2500000        45   24
   0.1666667   0.3333333   0.0000000        44    3
  -0.0833333   0.5833333  -0.2500000        50  -10
   0.5833333  -0.0833333   0.9166667        69    1
  -0.6666667  -0.8333333  -0.3333333        51  -16
   0.0833333   0.4166667   0.4166667        26    7
  -0.1666667   0.6666667   0.1666667        30   -2
   0.8333333   0.1666667  -0.8333333        37    4
  -0.4166667  -0.5833333  -0.0833333        54  -16
   0.3333333   0.6666667   0.6666667        23    7
  -0.9166667  -0.0833333  -0.5833333        69   -9
   0.0833333  -0.5833333   0.4166667        54   22
  -0.1666667  -0.3333333   0.1666667        10    4
  -0.4166667  -0.0833333  -0.0833333        20    7
   0.3333333  -0.8333333   0.6666667        51   22
  -0.6666667   0.6666667  -0.3333333        23   13
   0.0833333  -0.0833333   0.4166667        20   13
  -0.1666667   0.1666667   0.1666667         3   -2
  -0.4166667   0.4166667  -0.0833333        26   13
  -0.6666667   0.6666667   0.1666667        32  -15
  -0.9166667   0.9166667  -0.0833333        41   13
  -0.1666667   0.1666667   0.6666667        30   15
  -0.4166667   0.4166667   0.4166667         6   -2
   0.5833333  -0.0833333  -0.5833333        33   -2
  -0.6666667  -0.8333333   0.1666667        58   14
  -0.9166667  -0.5833333  -0.0833333        69   18
  -0.1666667   0.6666667   0.6666667        32   -6
  -0.1666667  -0.8333333   0.6666667        58  -23
   0.5833333   0.4166667  -0.5833333        13    4
   0.3333333   0.6666667  -0.8333333        51   -8
   0.0833333   0.9166667   0.9166667        41    7
   0.0833333  -0.5833333   0.9166667        69   -5
   0.8333333   0.6666667  -0.3333333        51   17
  -0.4166667  -0.0833333   0.4166667        26   -4
  -0.6666667   0.1666667   0.1666667        30    6
   0.0833333  -0.5833333  -0.5833333        33    6
   0.8333333   0.6666667   0.1666667        58  -18
   0.5833333   0.9166667  -0.0833333        69  -14
  -0.6666667   0.1666667   0.6666667        32    2
   0.3333333  -0.3333333  -0.3333333         5    2
   0.0833333  -0.0833333  -0.5833333        29  -15
   0.8333333  -0.8333333   0.1666667        37  -13
   0.5833333  -0.5833333  -0.0833333        33   15
   0.5833333  -0.0833333  -0.0833333        29   -6
   0.3333333   0.1666667  -0.3333333        16    4
   0.0833333   0.4166667  -0.5833333        54   -8
  -0.1666667   0.6666667  -0.8333333        58    5
  -0.1666667  -0.8333333  -0.8333333        37   -7
   0.5833333   0.4166667  -0.0833333        54   17
  -0.6666667  -0.3333333   0.6666667        23   -4
   0.0833333   0.9166667  -0.5833333        69   23
   0.8333333   0.1666667   0.6666667        58    9
  -0.4166667  -0.5833333  -0.5833333        13   -7
  -0.6666667  -0.3333333  -0.8333333        51    3
  -0.9166667  -0.0833333   0.9166667        41   -4
   0.0833333  -0.5833333  -0.0833333        29    2
  -0.1666667  -0.3333333  -0.3333333        16   -7
  -0.4166667  -0.0833333  -0.5833333        54    3
  -0.6666667   0.1666667  -0.8333333        58   -1
   0.3333333  -0.3333333   0.1666667        16  -13
   0.0833333  -0.0833333  -0.0833333         2    2
  -0.1666667   0.1666667  -0.3333333        10  -13
   0.5833333  -0.5833333   0.4166667        13  -13
   0.5833333  -0.0833333   0.4166667        54  -10
   0.3333333   0.1666667   0.1666667        10   -7
   0.0833333   0.4166667  -0.0833333        20   -4
   0.8333333  -0.3333333   0.6666667        51  -10
   0.5000000   0.0000000   0.8333333        70    1
   0.2500000   0.2500000   0.5833333        22  -16
   0.0000000   0.5000000   0.3333333        55   21
   0.7500000  -0.2500000  -0.9166667        57   -2
   0.7500000   0.2500000  -0.9166667        57    4
  -0.5000000  -0.5000000  -0.1666667        25  -16
   0.2500000   0.7500000   0.5833333        52  -24
   0.0000000  -1.0000000   0.3333333        71   -9
  -0.0000000  -0.5000000   0.3333333        55   22
  -0.2500000  -0.2500000   0.0833333        17   14
  -0.5000000   0.0000000  -0.1666667        49   22
   0.2500000  -0.7500000   0.5833333        52   22
   0.2500000  -0.2500000   0.5833333        22   13
   0.0000000   0.0000000   0.3333333        19   13
  -0.2500000   0.2500000   0.0833333        17  -15
  -0.5000000   0.5000000  -0.1666667        25   13
  -0.7500000   0.7500000   0.0833333        38  -15
   0.0000000   0.0000000   0.8333333        40   13
  -0.2500000   0.2500000   0.5833333        22   15
  -0.5000000   0.5000000   0.3333333        14  -15
   0.5000000  -0.0000000  -0.6666667        60   -2
  -0.7500000  -0.7500000   0.0833333        38   14
   0.0000000   0.5000000   0.8333333        70   -6
  -0.2500000   0.7500000   0.5833333        52   21
  -0.2500000  -0.7500000   0.5833333        52  -23
  -0.5000000  -0.5000000   0.3333333        14   14
   0.2500000   0.7500000  -0.9166667        57   -8
  -1.0000000   0.0000000  -0.1666667        64   21
   0.0000000  -0.5000000   0.8333333        70   -5
  -0.2500000  -0.2500000   0.5833333        22  -14
  -0.5000000   0.0000000   0.3333333        55   11
   0.2500000  -0.7500000  -0.9166667        57    6
   0.0000000  -0.5000000  -0.6666667        60    6
   0.7500000   0.7500000   0.0833333        38   16
  -0.5000000  -0.0000000   0.8333333        70    2
  -0.7500000   0.2500000   0.5833333        52  -12
   0.2500000  -0.2500000  -0.4166667        11  -15
[...]
     1.0000   1.0000   1.0000   1.0000   0.0000

          k = 0.5000 0.0000 0.8333 (  1153 PWs)   bands (ev):

    -3.9201  -2.1884   0.8524   2.1775  10.2408

     occupation numbers 
     1.0000   1.0000   1.0000   1.0000   0.0000

          k =-0.3333-1.0000 0.0000 (  1154 PWs)   bands (ev):

    -3.0751  -3.0751   1.5243   1.5243   9.6241

     occupation numbers 
     1.0000   1.0000   1.0000   1.0000   0.0000

          k =-0.5000-1.0000 0.0000 (  1144 PWs)   bands (ev):

    -3.0262  -3.0262   1.2794   1.2795  11.2512

     occupation numbers 
     1.0000   1.0000   1.0000   1.0000   0.0000

     highest occupied, lowest unoccupied level (ev):     5.4943    7.3407

!    total energy              =     -15.77561549 Ry
     estimated scf accuracy    <       0.00000002 Ry

     convergence has been achieved in   1 iterations

     Using ACE for calculation of exact exchange
     ACE projected onto     5 (nbndproj) and applied to     5 (nbnd) bands

     total energy              =     -15.77561555 Ry
     Harris-Foulkes estimate   =     -15.77561556 Ry
     est. exchange err (dexx)  =       0.00000006 Ry
     - averaged Fock potential =       2.13022218 Ry
     + Fock energy (ACE)       =      -1.06514259 Ry

     scf convergence threshold =          1.6E-08 Ry

     EXX: now go back to refine exchange calculation

     total cpu time spent up to now is      101.3 secs

     Self-consistent Calculation

     iteration #  1     ecut=    40.00 Ry     beta= 0.70
     Davidson diagonalization with overlap

---- Real-time Memory Report at c_bands before calling an iterative solver
          1084 MiB given to the printing process from OS
             0 MiB allocation reported by mallinfo(arena+hblkhd)
           144 MiB available memory on the node where the printing process lives
------------------
     ethr =  2.00E-09,  avg # of iterations =  2.0

     Threshold (ethr) on eigenvalues was too large:
     Diagonalizing with lowered threshold

     Davidson diagonalization with overlap

---- Real-time Memory Report at c_bands before calling an iterative solver
          1084 MiB given to the printing process from OS
             0 MiB allocation reported by mallinfo(arena+hblkhd)
           139 MiB available memory on the node where the printing process lives
------------------
     ethr =  1.25E-11,  avg # of iterations =  3.7

     total cpu time spent up to now is      102.8 secs

     End of self-consistent calculation

          k = 0.0000 0.0000 0.0000 (  1139 PWs)   bands (ev):

    -7.8312   5.4943   5.4943   5.4943   9.5311

     occupation numbers 
     1.0000   1.0000   1.0000   1.0000   0.0000

          k =-0.0833 0.0833-0.0833 (  1185 PWs)   bands (ev):

    -7.7314   4.6455   5.3545   5.3545   9.5973

     occupation numbers 
     1.0000   1.0000   1.0000   1.0000   0.0000

          k =-0.1667 0.1667-0.1667 (  1167 PWs)   bands (ev):

    -7.4385   3.0102   5.0357   5.0357   9.3295

     occupation numbers 
     1.0000   1.0000   1.0000   1.0000   0.0000

          k =-0.2500 0.2500-0.2500 (  1164 PWs)   bands (ev):

    -6.9411   1.1789   4.6786   4.6786   8.9683

     occupation numbers 
     1.0000   1.0000   1.0000   1.0000   0.0000

          k =-0.3333 0.3333-0.3333 (  1149 PWs)   bands (ev):

    -6.2840  -0.4584   4.3942   4.3942   8.6895

     occupation numbers 
     1.0000   1.0000   1.0000   1.0000   0.0000

          k =-0.4167 0.4167-0.4167 (  1155 PWs)   bands (ev):

    -5.6068  -1.7006   4.2281   4.2282   8.5174

     occupation numbers 
     1.0000   1.0000   1.0000   1.0000   0.0000

          k = 0.5000-0.5000 0.5000 (  1158 PWs)   bands (ev):

    -5.2365  -2.2726   4.1731   4.1731   8.4535

     occupation numbers 
     1.0000   1.0000   1.0000   1.0000   0.0000

          k = 0.0000 0.1667 0.0000 (  1179 PWs)   bands (ev):

    -7.6980   4.8252   5.0653   5.0653   9.2322

     occupation numbers 
     1.0000   1.0000   1.0000   1.0000   0.0000

          k =-0.0833 0.2500-0.0833 (  1164 PWs)   bands (ev):

    -7.4687   3.4991   4.6768   4.9116   9.2300

     occupation numbers 
     1.0000   1.0000   1.0000   1.0000   0.0000

          k =-0.1667 0.3333-0.1667 (  1155 PWs)   bands (ev):

    -7.0377   1.7655   4.3119   4.5735   9.3406

     occupation numbers 
     1.0000   1.0000   1.0000   1.0000   0.0000

          k =-0.2500 0.4167-0.2500 (  1151 PWs)   bands (ev):

    -6.4284   0.0841   4.0638   4.1695   9.2002

     occupation numbers 
     1.0000   1.0000   1.0000   1.0000   0.0000

          k =-0.3333 0.5000-0.3333 (  1153 PWs)   bands (ev):

    -5.7377  -1.2946   3.8305   3.9616   9.0420

     occupation numbers 
     1.0000   1.0000   1.0000   1.0000   0.0000

          k = 0.5833-0.4167 0.5833 (  1160 PWs)   bands (ev):

    -5.1943  -2.1560   3.6022   3.9925   8.9646

     occupation numbers 
     1.0000   1.0000   1.0000   1.0000   0.0000

          k = 0.5000-0.3333 0.5000 (  1156 PWs)   bands (ev):

    -5.3285  -1.9549   3.4963   4.1475   8.9985

     occupation numbers 
     1.0000   1.0000   1.0000   1.0000   0.0000

          k = 0.4167-0.2500 0.4167 (  1147 PWs)   bands (ev):

    -5.9690  -0.8763   3.5286   4.4101   9.1384

     occupation numbers 
     1.0000   1.0000   1.0000   1.0000   0.0000

          k = 0.3333-0.1667 0.3333 (  1151 PWs)   bands (ev):

    -6.6494   0.6229   3.7130   4.7657   9.3790

     occupation numbers 
     1.0000   1.0000   1.0000   1.0000   0.0000

          k = 0.2500-0.0833 0.2500 (  1160 PWs)   bands (ev):

    -7.2046   2.3374   4.0666   5.1417   9.6968

     occupation numbers 
     1.0000   1.0000   1.0000   1.0000   0.0000

          k = 0.1667-0.0000 0.1667 (  1163 PWs)   bands (ev):

    -7.5670   3.8627   4.6320   5.3864   9.8844

     occupation numbers 
     1.0000   1.0000   1.0000   1.0000   0.0000

          k = 0.0000 0.3333 0.0000 (  1162 PWs)   bands (ev):

    -7.3045   3.3949   4.2490   4.2491   8.5964

     occupation numbers 
     1.0000   1.0000   1.0000   1.0000   0.0000

          k =-0.0833 0.4167-0.0833 (  1158 PWs)   bands (ev):

    -6.9345   2.1004   3.8584   3.9128   8.5863

     occupation numbers 
     1.0000   1.0000   1.0000   1.0000   0.0000

          k =-0.1667 0.5000-0.1667 (  1151 PWs)   bands (ev):

    -6.3835   0.5938   3.4366   3.5976   8.8321

     occupation numbers 
     1.0000   1.0000   1.0000   1.0000   0.0000

          k =-0.2500 0.5833-0.2500 (  1152 PWs)   bands (ev):

    -5.7153  -0.7968   2.9368   3.5043   8.9026

     occupation numbers 
     1.0000   1.0000   1.0000   1.0000   0.0000

          k = 0.6667-0.3333 0.6667 (  1153 PWs)   bands (ev):

    -5.0619  -1.8654   2.5404   3.5631   8.9495

     occupation numbers 
     1.0000   1.0000   1.0000   1.0000   0.0000

          k = 0.5833-0.2500 0.5833 (  1157 PWs)   bands (ev):

    -4.9309  -2.0408   2.2992   3.7623   9.1119

     occupation numbers 
     1.0000   1.0000   1.0000   1.0000   0.0000

          k = 0.5000-0.1667 0.5000 (  1156 PWs)   bands (ev):

    -5.4844  -1.2000   2.2363   4.0866   9.4034

     occupation numbers 
     1.0000   1.0000   1.0000   1.0000   0.0000

          k = 0.4167-0.0833 0.4167 (  1156 PWs)   bands (ev):

    -6.1891   0.1238   2.4064   4.5029   9.7794

     occupation numbers 
     1.0000   1.0000   1.0000   1.0000   0.0000

          k = 0.3333 0.0000 0.3333 (  1147 PWs)   bands (ev):

    -6.7811   1.4339   2.9752   4.9139  10.0937

     occupation numbers 
     1.0000   1.0000   1.0000   1.0000   0.0000

          k = 0.0000 0.5000 0.0000 (  1174 PWs)   bands (ev):

    -6.6259   1.6411   3.4362   3.4363   7.9504

     occupation numbers 
     1.0000   1.0000   1.0000   1.0000   0.0000

          k =-0.0833 0.5833-0.0833 (  1154 PWs)   bands (ev):

    -6.1301   0.5855   2.9537   3.1433   8.0156

     occupation numbers 
     1.0000   1.0000   1.0000   1.0000   0.0000

          k =-0.1667 0.6667-0.1667 (  1153 PWs)   bands (ev):

    -5.5031  -0.5424   2.2788   3.0237   8.2603

     occupation numbers 
     1.0000   1.0000   1.0000   1.0000   0.0000

          k = 0.7500-0.2500 0.7500 (  1156 PWs)   bands (ev):

    -4.8037  -1.6039   1.6420   3.0687   8.3713

     occupation numbers 
     1.0000   1.0000   1.0000   1.0000   0.0000

          k = 0.6667-0.1667 0.6667 (  1151 PWs)   bands (ev):

    -4.4381  -2.0733   1.2140   3.2680   8.5694

     occupation numbers 
     1.0000   1.0000   1.0000   1.0000   0.0000

          k = 0.5833-0.0833 0.5833 (  1152 PWs)   bands (ev):

    -4.8498  -1.5290   1.0776   3.6036   8.9220

     occupation numbers 
     1.0000   1.0000   1.0000   1.0000   0.0000

          k = 0.5000 0.0000 0.5000 (  1159 PWs)   bands (ev):

    -5.5560  -0.5851   1.3961   4.0502   9.3979

     occupation numbers 
     1.0000   1.0000   1.0000   1.0000   0.0000

          k = 0.0000 0.6667 0.0000 (  1150 PWs)   bands (ev):

    -5.6898  -0.0870   2.8159   2.8159   7.4994

     occupation numbers 
     1.0000   1.0000   1.0000   1.0000   0.0000

          k =-0.0833 0.7500-0.0833 (  1152 PWs)   bands (ev):

    -5.1061  -0.9465   2.3167   2.6567   7.6667

     occupation numbers 
     1.0000   1.0000   1.0000   1.0000   0.0000

          k = 0.8333-0.1667 0.8333 (  1149 PWs)   bands (ev):

    -4.4035  -1.8132   1.5354   2.6635   7.8666

     occupation numbers 
     1.0000   1.0000   1.0000   1.0000   0.0000

          k = 0.7500-0.0833 0.7500 (  1149 PWs)   bands (ev):

    -3.8738  -2.3649   0.8470   2.8363   8.0617

     occupation numbers 
     1.0000   1.0000   1.0000   1.0000   0.0000

          k = 0.6667-0.0000 0.6667 (  1141 PWs)   bands (ev):

    -4.1818  -2.0399   0.5868   3.1571   8.4155

     occupation numbers 
     1.0000   1.0000   1.0000   1.0000   0.0000

          k = 0.0000 0.8333 0.0000 (  1162 PWs)   bands (ev):

    -4.5654  -1.6785   2.4552   2.4552   7.3408

     occupation numbers 
     1.0000   1.0000   1.0000   1.0000   0.0000

          k = 0.9167-0.0833 0.9167 (  1150 PWs)   bands (ev):

    -3.8798  -2.4572   2.0195   2.4177   7.5571

     occupation numbers 
     1.0000   1.0000   1.0000   1.0000   0.0000

          k = 0.8333 0.0000 0.8333 (  1152 PWs)   bands (ev):

    -3.3595  -2.9163   1.3021   2.5476   7.7304

     occupation numbers 
     1.0000   1.0000   1.0000   1.0000   0.0000

          k = 0.0000-1.0000 0.0000 (  1162 PWs)   bands (ev):

    -3.2111  -3.2111   2.3346   2.3346   7.4950

     occupation numbers 
     1.0000   1.0000   1.0000   1.0000   0.0000

          k =-0.1667 0.3333 0.0000 (  1157 PWs)   bands (ev):

    -7.1694   2.5649   3.8059   4.7921   9.2398

     occupation numbers 
     1.0000   1.0000   1.0000   1.0000   0.0000

          k =-0.2500 0.4167-0.0833 (  1148 PWs)   bands (ev):

    -6.6780   1.1338   3.2134   4.4864   9.5214

     occupation numbers 
     1.0000   1.0000   1.0000   1.0000   0.0000

          k =-0.3333 0.5000-0.1667 (  1151 PWs)   bands (ev):

    -6.0359  -0.3575   2.9058   4.1108   9.5789

     occupation numbers 
     1.0000   1.0000   1.0000   1.0000   0.0000

          k = 0.5833-0.4167 0.7500 (  1151 PWs)   bands (ev):

    -5.3439  -1.5907   2.7618   3.8297   9.5367

     occupation numbers 
     1.0000   1.0000   1.0000   1.0000   0.0000

          k = 0.5000-0.3333 0.6667 (  1152 PWs)   bands (ev):

    -4.9666  -2.1470   2.7227   3.7258   9.5200

     occupation numbers 
     1.0000   1.0000   1.0000   1.0000   0.0000

          k =-0.1667 0.5000 0.0000 (  1156 PWs)   bands (ev):

    -6.5024   1.1744   2.9894   3.7896   8.6300

     occupation numbers 
     1.0000   1.0000   1.0000   1.0000   0.0000

          k =-0.2500 0.5833-0.0833 (  1152 PWs)   bands (ev):

    -5.9126   0.0004   2.3986   3.4698   8.9809

     occupation numbers 
     1.0000   1.0000   1.0000   1.0000   0.0000

          k = 0.6667-0.3333 0.8333 (  1153 PWs)   bands (ev):

    -5.2179  -1.1968   1.9968   3.2248   9.1275

     occupation numbers 
     1.0000   1.0000   1.0000   1.0000   0.0000

          k = 0.5833-0.2500 0.7500 (  1152 PWs)   bands (ev):

    -4.6590  -2.0033   1.7147   3.1960   9.2703

     occupation numbers 
     1.0000   1.0000   1.0000   1.0000   0.0000

          k = 0.5000-0.1667 0.6667 (  1152 PWs)   bands (ev):

    -4.8073  -1.7940   1.5858   3.3818   9.5402

     occupation numbers 
     1.0000   1.0000   1.0000   1.0000   0.0000

          k = 0.4167-0.0833 0.5833 (  1154 PWs)   bands (ev):

    -5.4679  -0.8026   1.6771   3.7365   9.9387

     occupation numbers 
     1.0000   1.0000   1.0000   1.0000   0.0000

          k = 0.3333 0.0000 0.5000 (  1157 PWs)   bands (ev):

    -6.1475   0.3306   2.1651   4.1674  10.1575

     occupation numbers 
     1.0000   1.0000   1.0000   1.0000   0.0000

          k =-0.1667 0.6667-0.0000 (  1154 PWs)   bands (ev):

    -5.5923  -0.2616   2.3898   2.8794   8.1864

     occupation numbers 
     1.0000   1.0000   1.0000   1.0000   0.0000

          k = 0.7500-0.2500 0.9167 (  1156 PWs)   bands (ev):

    -4.9235  -1.1910   1.7653   2.6382   8.5516

     occupation numbers 
     1.0000   1.0000   1.0000   1.0000   0.0000

          k = 0.6667-0.1667 0.8333 (  1154 PWs)   bands (ev):

    -4.2595  -2.0034   1.1522   2.6462   8.7242

     occupation numbers 
     1.0000   1.0000   1.0000   1.0000   0.0000

          k = 0.5833-0.0833 0.7500 (  1157 PWs)   bands (ev):

    -4.1837  -2.0773   0.8018   2.8667   9.0003

     occupation numbers 
     1.0000   1.0000   1.0000   1.0000   0.0000

          k = 0.5000 0.0000 0.6667 (  1161 PWs)   bands (ev):

    -4.7764  -1.4245   0.9142   3.2548   9.4298

     occupation numbers 
     1.0000   1.0000   1.0000   1.0000   0.0000

          k = 0.8333-0.1667 1.0000 (  1159 PWs)   bands (ev):

    -4.4735  -1.7300   2.0844   2.2815   8.0063

     occupation numbers 
     1.0000   1.0000   1.0000   1.0000   0.0000

          k = 0.7500-0.0833 0.9167 (  1153 PWs)   bands (ev):

    -3.7666  -2.4558   1.4054   2.2428   8.3224

     occupation numbers 
     1.0000   1.0000   1.0000   1.0000   0.0000

          k = 0.6667 0.0000 0.8333 (  1151 PWs)   bands (ev):

    -3.5967  -2.5761   0.8038   2.4658   8.5777

     occupation numbers 
     1.0000   1.0000   1.0000   1.0000   0.0000

          k =-0.1667-1.0000-0.0000 (  1148 PWs)   bands (ev):

    -3.1658  -3.1658   2.0363   2.0363   8.1209

     occupation numbers 
     1.0000   1.0000   1.0000   1.0000   0.0000

          k = 0.6667-0.3333 1.0000 (  1151 PWs)   bands (ev):

    -5.2801  -0.7647   1.6052   3.0657   9.7500

     occupation numbers 
     1.0000   1.0000   1.0000   1.0000   0.0000

          k = 0.5833-0.2500 0.9167 (  1152 PWs)   bands (ev):

    -4.5827  -1.6332   1.1983   2.6865  10.1502

     occupation numbers 
     1.0000   1.0000   1.0000   1.0000   0.0000

          k = 0.5000-0.1667 0.8333 (  1152 PWs)   bands (ev):

    -4.1849  -2.1152   1.0727   2.5435  10.2557

     occupation numbers 
     1.0000   1.0000   1.0000   1.0000   0.0000

          k = 0.6667-0.1667 1.0000 (  1155 PWs)   bands (ev):

    -4.2382  -1.8852   1.3967   2.0844   9.5611

     occupation numbers 
     1.0000   1.0000   1.0000   1.0000   0.0000

          k = 0.5833-0.0833 0.9167 (  1158 PWs)   bands (ev):

    -3.6592  -2.4509   1.0039   1.9189   9.9208

     occupation numbers 
     1.0000   1.0000   1.0000   1.0000   0.0000

          k = 0.5000 0.0000 0.8333 (  1153 PWs)   bands (ev):

    -3.9198  -2.1881   0.8526   2.1776  10.2410

     occupation numbers 
     1.0000   1.0000   1.0000   1.0000   0.0000

          k =-0.3333-1.0000 0.0000 (  1154 PWs)   bands (ev):

    -3.0748  -3.0748   1.5245   1.5245   9.6244

     occupation numbers 
     1.0000   1.0000   1.0000   1.0000   0.0000

          k =-0.5000-1.0000 0.0000 (  1144 PWs)   bands (ev):

    -3.0259  -3.0259   1.2797   1.2797  11.2513

     occupation numbers 
     1.0000   1.0000   1.0000   1.0000   0.0000

     highest occupied, lowest unoccupied level (ev):     5.4943    7.3408

!    total energy              =     -15.77561558 Ry
     estimated scf accuracy    <          1.3E-09 Ry

     convergence has been achieved in   1 iterations

     Using ACE for calculation of exact exchange
     ACE projected onto     5 (nbndproj) and applied to     5 (nbnd) bands
     BEWARE: negative dexx:  -0.469E-08

!!   total energy              =     -15.77561558 Ry
     Harris-Foulkes estimate   =     -15.77561558 Ry
     est. exchange err (dexx)  =          4.7E-09 Ry
     - averaged Fock potential =       2.13030223 Ry
     + Fock energy (ACE)       =      -1.06515963 Ry

     EXX self-consistency reached

     Writing all to output data dir ./out/si.save/
 
     init_run     :      0.23s CPU      0.30s WALL (       1 calls)
     electrons    :      9.90s CPU     10.04s WALL (       6 calls)

     Called by init_run:
     aceinit0     :      0.00s CPU      0.00s WALL (       1 calls)
     wfcinit      :      0.20s CPU      0.24s WALL (       1 calls)
     wfcinit:wfcr :      0.18s CPU      0.21s WALL (      72 calls)
     potinit      :      0.00s CPU      0.01s WALL (       1 calls)
     hinit0       :      0.01s CPU      0.02s WALL (       1 calls)

     Called by electrons:
     c_bands      :      8.52s CPU      8.63s WALL (      12 calls)
     sum_band     :      1.29s CPU      1.30s WALL (      12 calls)
     v_of_rho     :      0.09s CPU      0.11s WALL (      10 calls)
     v_h          :      0.00s CPU      0.00s WALL (      10 calls)
     v_xc         :      0.09s CPU      0.11s WALL (      10 calls)
     mix_rho      :      0.00s CPU      0.00s WALL (      12 calls)

     Called by c_bands:
     init_us_2    :      0.23s CPU      0.24s WALL (    1800 calls)
     init_us_2:cp :      0.23s CPU      0.23s WALL (    1800 calls)
     cegterg      :      8.01s CPU      8.10s WALL (     864 calls)

     Called by sum_band:
     sum_band:wei :      0.00s CPU      0.00s WALL (      12 calls)
     sum_band:loo :      1.27s CPU      1.27s WALL (      12 calls)
     sum_band:buf :      0.01s CPU      0.01s WALL (     864 calls)
     sum_band:ini :      0.12s CPU      0.12s WALL (     864 calls)

     Called by *egterg:
     cdiaghg      :      0.17s CPU      0.19s WALL (    3154 calls)
     cegterg:over :      0.12s CPU      0.13s WALL (    2938 calls)
     cegterg:upda :      0.11s CPU      0.11s WALL (    2938 calls)
     cegterg:last :      0.13s CPU      0.13s WALL (    2385 calls)
     h_psi        :      7.53s CPU      7.62s WALL (    3874 calls)
     g_psi        :      0.03s CPU      0.03s WALL (    2938 calls)

     Called by h_psi:
     h_psi:calbec :      0.15s CPU      0.16s WALL (    3874 calls)
     vloc_psi     :      7.10s CPU      7.18s WALL (    3874 calls)
     add_vuspsi   :      0.13s CPU      0.13s WALL (    3874 calls)

     General routines
     calbec       :      0.22s CPU      0.27s WALL (    8172 calls)
     fft          :      0.02s CPU      0.03s WALL (      96 calls)
     ffts         :      0.00s CPU      0.00s WALL (      12 calls)
     fftw         :      7.35s CPU      7.44s WALL (   33622 calls)
     fftc         :     60.22s CPU     61.27s WALL ( 1382400 calls)
     fftcw        :      0.30s CPU      0.43s WALL (    6480 calls)
 
     Parallel routines

     EXX routines
     exx_grid     :      0.10s CPU      0.11s WALL (       1 calls)
     exxinit      :      3.40s CPU     16.23s WALL (       6 calls)
     vexx         :     89.92s CPU     91.42s WALL (     432 calls)
     matcalc      :      0.09s CPU      0.14s WALL (    4298 calls)
     aceupdate    :      0.02s CPU      0.15s WALL (     432 calls)
     vexxace      :      0.15s CPU      0.15s WALL (    3074 calls)
     aceinit      :     89.95s CPU     91.64s WALL (     432 calls)
 
     PWSCF        :   1m43.71s CPU   1m58.71s WALL

 
   This run was terminated on:  15:25: 7  31Oct2022            

=------------------------------------------------------------------------------=
   JOB DONE.
=------------------------------------------------------------------------------=
