
     Program BANDS v.7.1 starts on 17Oct2022 at 16:39:16 

     This program is part of the open-source Quantum ESPRESSO suite
     for quantum simulation of materials; please cite
         "P. Giannozzi et al., J. Phys.:Condens. Matter 21 395502 (2009);
         "P. Giannozzi et al., J. Phys.:Condens. Matter 29 465901 (2017);
         "P. Giannozzi et al., J. Chem. Phys. 152 154105 (2020);
          URL http://www.quantum-espresso.org", 
     in publications or presentations arising from this work. More details at
     http://www.quantum-espresso.org/quote

     Parallel version (MPI), running on     1 processors

     MPI processes distributed on     1 nodes
     283 MiB available memory on the printing compute node when the environment starts
 

     Reading xml data from directory:

     ./out/kc.save/

     IMPORTANT: XC functional enforced from input :
     Exchange-correlation= PW
                           (   1   4   0   0   0   0   0)
     Any further DFT definition will be discarded
     Please, verify this is what you really want

 
     G-vector sticks info
     --------------------
     sticks:   dense  smooth     PW     G-vecs:    dense   smooth      PW
     Sum         511     511    163                15291    15291    2623
 
     Using Slab Decomposition
 

     Check: negative core charge=   -0.000270
     Reading collected, re-writing distributed wavefunctions
     high-symmetry point:  0.0000 0.0000-0.3121   x coordinate   0.0000
     high-symmetry point: -0.5000-0.2887-0.3121   x coordinate   0.5774
     high-symmetry point: -0.5000-0.2887 0.0000   x coordinate   0.8895
     high-symmetry point:  0.0000 0.0000 0.0000   x coordinate   1.4668
     high-symmetry point:  0.0000 0.0000-0.3121   x coordinate   1.7789
     high-symmetry point: -0.6667 0.0000-0.3121   x coordinate   2.4456
     high-symmetry point: -0.6667 0.0000 0.0000   x coordinate   2.7577

     Plottable bands (eV) written to file dft_bands.gnu
     Bands written to file dft_bands

 **************************************************************************

                    xk=(   0.00000,   0.00000,  -0.31210  )

     point group C_2v (mm2) 
     there are  4 classes
     the character table:

       E     C2    s_v   s_v' 
A_1    1.00  1.00  1.00  1.00
A_2    1.00  1.00 -1.00 -1.00
B_1    1.00 -1.00  1.00 -1.00
B_2    1.00 -1.00 -1.00  1.00

     the symmetry operations in each class and the name of the first element:

     E        1
                                                                 
     C2       2
                                                                 
     s_v      4
                                                                 
     s_v'     3
                                                                 

     Band symmetry, C_2v (mm2)  point group:

     e(  1 -  2) =   -115.91956  eV     2   --> A_1  D_1  S_1  
     e(  1 -  2) =   -115.91956  eV     2   --> B_1  D_3  S_3  
     e(  3 -  4) =    -69.60378  eV     2   --> A_1  D_1  S_1  
     e(  3 -  4) =    -69.60378  eV     2   --> B_1  D_3  S_3  
     e(  5 -  8) =    -69.53477  eV     4   --> A_1  D_1  S_1  
     e(  5 -  8) =    -69.53477  eV     4   --> A_2  D_2  S_2  
     e(  5 -  8) =    -69.53477  eV     4   --> B_1  D_3  S_3  
     e(  5 -  8) =    -69.53477  eV     4   --> B_2  D_4  S_4  
     e(  9 - 10) =     -8.20031  eV     2   --> A_1  D_1  S_1  
     e(  9 - 10) =     -8.20031  eV     2   --> B_1  D_3  S_3  
     e( 11 - 12) =      3.10762  eV     2   --> A_1  D_1  S_1  
     e( 11 - 12) =      3.10762  eV     2   --> B_1  D_3  S_3  
     e( 13 - 14) =      3.34160  eV     2   --> A_2  D_2  S_2  
     e( 13 - 14) =      3.34160  eV     2   --> B_2  D_4  S_4  
     e( 15 - 16) =      3.34228  eV     2   --> A_1  D_1  S_1  
     e( 15 - 16) =      3.34228  eV     2   --> B_1  D_3  S_3  
     e( 17 - 20) =      4.42536  eV     4   --> A_1  D_1  S_1  
     e( 17 - 20) =      4.42536  eV     4   --> A_2  D_2  S_2  
     e( 17 - 20) =      4.42536  eV     4   --> B_1  D_3  S_3  
     e( 17 - 20) =      4.42536  eV     4   --> B_2  D_4  S_4  
     e( 21 - 22) =      6.91784  eV     2   --> A_1  D_1  S_1  
     e( 21 - 22) =      6.91784  eV     2   --> B_1  D_3  S_3  
     e( 23 - 24) =      8.92494  eV     2   --> A_2  D_2  S_2  
     e( 23 - 24) =      8.92494  eV     2   --> B_2  D_4  S_4  
     e( 25 - 26) =      8.92563  eV     2   --> A_1  D_1  S_1  
     e( 25 - 26) =      8.92563  eV     2   --> B_1  D_3  S_3  
     e( 27 - 28) =     12.66250  eV     2   --> A_1  D_1  S_1  
     e( 27 - 28) =     12.66250  eV     2   --> B_1  D_3  S_3  
     e( 29 - 30) =     19.19612  eV     2   --> A_1  D_1  S_1  
     e( 29 - 30) =     19.19612  eV     2   --> B_1  D_3  S_3  
     e( 31 - 32) =     22.29630  eV     2   --> A_1  D_1  S_1  
     e( 31 - 32) =     22.29630  eV     2   --> B_1  D_3  S_3  
     e( 33 - 34) =     22.29856  eV     2   --> A_2  D_2  S_2  
     e( 33 - 34) =     22.29856  eV     2   --> B_2  D_4  S_4  
     e( 35 - 36) =     27.29951  eV     2   --> A_1  D_1  S_1  
     e( 35 - 36) =     27.29951  eV     2   --> B_1  D_3  S_3  

 **************************************************************************

 **************************************************************************

                    xk=(  -0.05000,  -0.02887,  -0.31210  )

     point group C_1 (1)    
     there are  1 classes
     the character table:

       E    
A      1.00

     the symmetry operations in each class and the name of the first element:

     E        1
                                                                 

     Band symmetry, C_1 (1)     point group:

     e(  1 -  2) =   -115.91957  eV     2   -->   2 A              
     e(  3 -  4) =    -69.60107  eV     2   -->   2 A              
     e(  5 -  6) =    -69.54500  eV     2   -->   2 A              
     e(  7 -  8) =    -69.54372  eV     2   -->   2 A              
     e(  9 - 10) =     -8.18936  eV     2   -->   2 A              
     e( 11 - 12) =      3.09114  eV     2   -->   2 A              
     e( 13 - 14) =      3.33540  eV     2   -->   2 A              
     e( 15 - 16) =      3.33626  eV     2   -->   2 A              
     e( 17 - 18) =      4.41768  eV     2   -->   2 A              
     e( 19 - 20) =      4.43458  eV     2   -->   2 A              
     e( 21 - 22) =      6.91157  eV     2   -->   2 A              
     e( 23 - 24) =      8.83974  eV     2   -->   2 A              
     e( 25 - 26) =      8.88862  eV     2   -->   2 A              
     e( 27 - 28) =     12.74691  eV     2   -->   2 A              
     e( 29 - 30) =     19.19047  eV     2   -->   2 A              
     e( 31 - 32) =     22.10266  eV     2   -->   2 A              
     e( 33 - 34) =     22.31879  eV     2   -->   2 A              
     e( 35 - 36) =     27.43235  eV     2   -->   2 A              

 **************************************************************************

 **************************************************************************

                    xk=(  -0.10000,  -0.05774,  -0.31210  )

     Band symmetry, C_1 (1)     point group:

     e(  1 -  2) =   -115.91954  eV     2   -->   2 A              
     e(  3 -  4) =    -69.58942  eV     2   -->   2 A              
     e(  5 -  6) =    -69.54124  eV     2   -->   2 A              
     e(  7 -  8) =    -69.54044  eV     2   -->   2 A              
     e(  9 - 10) =     -8.15692  eV     2   -->   2 A              
     e( 11 - 12) =      3.07482  eV     2   -->   2 A              
     e( 13 - 14) =      3.35898  eV     2   -->   2 A              
     e( 15 - 16) =      3.37187  eV     2   -->   2 A              
     e( 17 - 18) =      4.43396  eV     2   -->   2 A              
     e( 19 - 20) =      4.45868  eV     2   -->   2 A              
     e( 21 - 22) =      6.90832  eV     2   -->   2 A              
     e( 23 - 24) =      8.63889  eV     2   -->   2 A              
     e( 25 - 26) =      8.81420  eV     2   -->   2 A              
     e( 27 - 28) =     12.97664  eV     2   -->   2 A              
     e( 29 - 30) =     19.16380  eV     2   -->   2 A              
     e( 31 - 32) =     21.66195  eV     2   -->   2 A              
     e( 33 - 34) =     22.39209  eV     2   -->   2 A              
     e( 35 - 36) =     27.49885  eV     2   -->   2 A              

 **************************************************************************

 **************************************************************************

                    xk=(  -0.15000,  -0.08660,  -0.31210  )

     Band symmetry, C_1 (1)     point group:

     e(  1 -  2) =   -115.91957  eV     2   -->   2 A              
     e(  3 -  4) =    -69.59467  eV     2   -->   2 A              
     e(  5 -  6) =    -69.56915  eV     2   -->   2 A              
     e(  7 -  8) =    -69.55804  eV     2   -->   2 A              
     e(  9 - 10) =     -8.10666  eV     2   -->   2 A              
     e( 11 - 12) =      3.02733  eV     2   -->   2 A              
     e( 13 - 14) =      3.37174  eV     2   -->   2 A              
     e( 15 - 16) =      3.37238  eV     2   -->   2 A              
     e( 17 - 18) =      4.42368  eV     2   -->   2 A              
     e( 19 - 20) =      4.44692  eV     2   -->   2 A              
     e( 21 - 22) =      6.84722  eV     2   -->   2 A              
     e( 23 - 24) =      8.34917  eV     2   -->   2 A              
     e( 25 - 26) =      8.66660  eV     2   -->   2 A              
     e( 27 - 28) =     13.28850  eV     2   -->   2 A              
     e( 29 - 30) =     19.07218  eV     2   -->   2 A              
     e( 31 - 32) =     21.18732  eV     2   -->   2 A              
     e( 33 - 34) =     22.48534  eV     2   -->   2 A              
     e( 35 - 36) =     27.15152  eV     2   -->   2 A              

 **************************************************************************

 **************************************************************************

                    xk=(  -0.20000,  -0.11547,  -0.31210  )

     Band symmetry, C_1 (1)     point group:

     e(  1 -  2) =   -115.91957  eV     2   -->   2 A              
     e(  3 -  4) =    -69.59427  eV     2   -->   2 A              
     e(  5 -  6) =    -69.58625  eV     2   -->   2 A              
     e(  7 -  8) =    -69.56218  eV     2   -->   2 A              
     e(  9 - 10) =     -8.04191  eV     2   -->   2 A              
     e( 11 - 12) =      2.99232  eV     2   -->   2 A              
     e( 13 - 14) =      3.41154  eV     2   -->   2 A              
     e( 15 - 16) =      3.42690  eV     2   -->   2 A              
     e( 17 - 18) =      4.42605  eV     2   -->   2 A              
     e( 19 - 20) =      4.42988  eV     2   -->   2 A              
     e( 21 - 22) =      6.72549  eV     2   -->   2 A              
     e( 23 - 24) =      8.09738  eV     2   -->   2 A              
     e( 25 - 26) =      8.49463  eV     2   -->   2 A              
     e( 27 - 28) =     13.63719  eV     2   -->   2 A              
     e( 29 - 30) =     18.86859  eV     2   -->   2 A              
     e( 31 - 32) =     20.84957  eV     2   -->   2 A              
     e( 33 - 34) =     22.60125  eV     2   -->   2 A              
     e( 35 - 36) =     26.61974  eV     2   -->   2 A              

 **************************************************************************

 **************************************************************************

                    xk=(  -0.25000,  -0.14434,  -0.31210  )

     Band symmetry, C_1 (1)     point group:

     e(  1 -  2) =   -115.91954  eV     2   -->   2 A              
     e(  3 -  4) =    -69.59636  eV     2   -->   2 A              
     e(  5 -  6) =    -69.57263  eV     2   -->   2 A              
     e(  7 -  8) =    -69.55730  eV     2   -->   2 A              
     e(  9 - 10) =     -7.96902  eV     2   -->   2 A              
     e( 11 - 12) =      2.96370  eV     2   -->   2 A              
     e( 13 - 14) =      3.48478  eV     2   -->   2 A              
     e( 15 - 16) =      3.49165  eV     2   -->   2 A              
     e( 17 - 18) =      4.44329  eV     2   -->   2 A              
     e( 19 - 20) =      4.46516  eV     2   -->   2 A              
     e( 21 - 22) =      6.52111  eV     2   -->   2 A              
     e( 23 - 24) =      7.94191  eV     2   -->   2 A              
     e( 25 - 26) =      8.32413  eV     2   -->   2 A              
     e( 27 - 28) =     13.98378  eV     2   -->   2 A              
     e( 29 - 30) =     18.57315  eV     2   -->   2 A              
     e( 31 - 32) =     20.68176  eV     2   -->   2 A              
     e( 33 - 34) =     22.70846  eV     2   -->   2 A              
     e( 35 - 36) =     26.11707  eV     2   -->   2 A              

 **************************************************************************

 **************************************************************************

                    xk=(  -0.30000,  -0.17321,  -0.31210  )

     Band symmetry, C_1 (1)     point group:

     e(  1 -  2) =   -115.91951  eV     2   -->   2 A              
     e(  3 -  4) =    -69.59059  eV     2   -->   2 A              
     e(  5 -  6) =    -69.57427  eV     2   -->   2 A              
     e(  7 -  8) =    -69.55511  eV     2   -->   2 A              
     e(  9 - 10) =     -7.89456  eV     2   -->   2 A              
     e( 11 - 12) =      2.94776  eV     2   -->   2 A              
     e( 13 - 14) =      3.54961  eV     2   -->   2 A              
     e( 15 - 16) =      3.56070  eV     2   -->   2 A              
     e( 17 - 18) =      4.46049  eV     2   -->   2 A              
     e( 19 - 20) =      4.50044  eV     2   -->   2 A              
     e( 21 - 22) =      6.22280  eV     2   -->   2 A              
     e( 23 - 24) =      7.87673  eV     2   -->   2 A              
     e( 25 - 26) =      8.13517  eV     2   -->   2 A              
     e( 27 - 28) =     14.29107  eV     2   -->   2 A              
     e( 29 - 30) =     18.25079  eV     2   -->   2 A              
     e( 31 - 32) =     20.60586  eV     2   -->   2 A              
     e( 33 - 34) =     22.79957  eV     2   -->   2 A              
     e( 35 - 36) =     25.73060  eV     2   -->   2 A              

 **************************************************************************

 **************************************************************************

                    xk=(  -0.35000,  -0.20207,  -0.31210  )

     Band symmetry, C_1 (1)     point group:

     e(  1 -  2) =   -115.91951  eV     2   -->   2 A              
     e(  3 -  4) =    -69.59886  eV     2   -->   2 A              
     e(  5 -  6) =    -69.57622  eV     2   -->   2 A              
     e(  7 -  8) =    -69.56117  eV     2   -->   2 A              
     e(  9 - 10) =     -7.82711  eV     2   -->   2 A              
     e( 11 - 12) =      2.93567  eV     2   -->   2 A              
     e( 13 - 14) =      3.60398  eV     2   -->   2 A              
     e( 15 - 16) =      3.63032  eV     2   -->   2 A              
     e( 17 - 18) =      4.45990  eV     2   -->   2 A              
     e( 19 - 20) =      4.51910  eV     2   -->   2 A              
     e( 21 - 22) =      5.87899  eV     2   -->   2 A              
     e( 23 - 24) =      7.86867  eV     2   -->   2 A              
     e( 25 - 26) =      7.96469  eV     2   -->   2 A              
     e( 27 - 28) =     14.54399  eV     2   -->   2 A              
     e( 29 - 30) =     17.96339  eV     2   -->   2 A              
     e( 31 - 32) =     20.54660  eV     2   -->   2 A              
     e( 33 - 34) =     22.85882  eV     2   -->   2 A              
     e( 35 - 36) =     25.49575  eV     2   -->   2 A              

 **************************************************************************

 **************************************************************************

                    xk=(  -0.40000,  -0.23094,  -0.31210  )

     Band symmetry, C_1 (1)     point group:

     e(  1 -  2) =   -115.91951  eV     2   -->   2 A              
     e(  3 -  4) =    -69.59205  eV     2   -->   2 A              
     e(  5 -  6) =    -69.58345  eV     2   -->   2 A              
     e(  7 -  8) =    -69.57003  eV     2   -->   2 A              
     e(  9 - 10) =     -7.77239  eV     2   -->   2 A              
     e( 11 - 12) =      2.94002  eV     2   -->   2 A              
     e( 13 - 14) =      3.64706  eV     2   -->   2 A              
     e( 15 - 16) =      3.70540  eV     2   -->   2 A              
     e( 17 - 18) =      4.46693  eV     2   -->   2 A              
     e( 19 - 20) =      4.54917  eV     2   -->   2 A              
     e( 21 - 22) =      5.56674  eV     2   -->   2 A              
     e( 23 - 24) =      7.82484  eV     2   -->   2 A              
     e( 25 - 26) =      7.86788  eV     2   -->   2 A              
     e( 27 - 28) =     14.73334  eV     2   -->   2 A              
     e( 29 - 30) =     17.75179  eV     2   -->   2 A              
     e( 31 - 32) =     20.48397  eV     2   -->   2 A              
     e( 33 - 34) =     22.88654  eV     2   -->   2 A              
     e( 35 - 36) =     25.39938  eV     2   -->   2 A              

 **************************************************************************

 **************************************************************************

                    xk=(  -0.45000,  -0.25981,  -0.31210  )

     Band symmetry, C_1 (1)     point group:

     e(  1 -  2) =   -115.91947  eV     2   -->   2 A              
     e(  3 -  4) =    -69.58518  eV     2   -->   2 A              
     e(  5 -  6) =    -69.57101  eV     2   -->   2 A              
     e(  7 -  8) =    -69.55741  eV     2   -->   2 A              
     e(  9 - 10) =     -7.73606  eV     2   -->   2 A              
     e( 11 - 12) =      2.96620  eV     2   -->   2 A              
     e( 13 - 14) =      3.67559  eV     2   -->   2 A              
     e( 15 - 16) =      3.80226  eV     2   -->   2 A              
     e( 17 - 18) =      4.47529  eV     2   -->   2 A              
     e( 19 - 20) =      4.61678  eV     2   -->   2 A              
     e( 21 - 22) =      5.34972  eV     2   -->   2 A              
     e( 23 - 24) =      7.74001  eV     2   -->   2 A              
     e( 25 - 26) =      7.88716  eV     2   -->   2 A              
     e( 27 - 28) =     14.85252  eV     2   -->   2 A              
     e( 29 - 30) =     17.63401  eV     2   -->   2 A              
     e( 31 - 32) =     20.43929  eV     2   -->   2 A              
     e( 33 - 34) =     22.90907  eV     2   -->   2 A              
     e( 35 - 36) =     25.38712  eV     2   -->   2 A              

 **************************************************************************

 **************************************************************************

                    xk=(  -0.50000,  -0.28868,  -0.31210  )

     point group C_2  (2)   
     there are  2 classes
     the character table:

       E     C2   
A      1.00  1.00
B      1.00 -1.00

     the symmetry operations in each class and the name of the first element:

     E        1
                                                                 
     C2       2
                                                                 

     Band symmetry, C_2  (2)    point group:

     e(  1 -  2) =   -115.91949  eV     2   --> A              
     e(  1 -  2) =   -115.91949  eV     2   --> B              
     e(  3 -  4) =    -69.58961  eV     2   --> A              
     e(  3 -  4) =    -69.58961  eV     2   --> B              
     e(  5 -  6) =    -69.57329  eV     2   --> A              
     e(  5 -  6) =    -69.57329  eV     2   --> B              
     e(  7 -  8) =    -69.57140  eV     2   --> A              
     e(  7 -  8) =    -69.57140  eV     2   --> B              
     e(  9 - 10) =     -7.72390  eV     2   --> A              
     e(  9 - 10) =     -7.72390  eV     2   --> B              
     e( 11 - 12) =      2.95957  eV     2   --> A              
     e( 11 - 12) =      2.95957  eV     2   --> B              
     e( 13 - 14) =      3.68266  eV     2   --> A              
     e( 13 - 14) =      3.68266  eV     2   --> B              
     e( 15 - 16) =      3.80173  eV     2   --> A              
     e( 15 - 16) =      3.80173  eV     2   --> B              
     e( 17 - 18) =      4.47663  eV     2   --> A              
     e( 17 - 18) =      4.47663  eV     2   --> B              
     e( 19 - 20) =      4.62942  eV     2   --> A              
     e( 19 - 20) =      4.62942  eV     2   --> B              
     e( 21 - 22) =      5.24136  eV     2   --> A              
     e( 21 - 22) =      5.24136  eV     2   --> B              
     e( 23 - 24) =      7.70594  eV     2   --> A              
     e( 23 - 24) =      7.70594  eV     2   --> B              
     e( 25 - 26) =      7.89248  eV     2   --> A              
     e( 25 - 26) =      7.89248  eV     2   --> B              
     e( 27 - 28) =     14.88857  eV     2   --> A              
     e( 27 - 28) =     14.88857  eV     2   --> B              
     e( 29 - 30) =     17.59317  eV     2   --> A              
     e( 29 - 30) =     17.59317  eV     2   --> B              
     e( 31 - 32) =     20.41721  eV     2   --> A              
     e( 31 - 32) =     20.41721  eV     2   --> B              
     e( 33 - 34) =     22.91258  eV     2   --> A              
     e( 33 - 34) =     22.91258  eV     2   --> B              
     e( 35 - 36) =     25.38157  eV     2   --> A              
     e( 35 - 36) =     25.38157  eV     2   --> B              

 **************************************************************************

 **************************************************************************

                    xk=(  -0.50000,  -0.28868,  -0.24968  )

     Band symmetry, C_2  (2)    point group:

     e(  1 -  2) =   -115.91950  eV     2   --> A              
     e(  1 -  2) =   -115.91950  eV     2   --> B              
     e(  3 -  3) =    -69.59338  eV     1   --> B              
     e(  4 -  4) =    -69.58864  eV     1   --> A              
     e(  5 -  5) =    -69.58769  eV     1   --> B              
     e(  6 -  6) =    -69.57630  eV     1   --> A              
     e(  7 -  7) =    -69.56450  eV     1   --> A              
     e(  8 -  8) =    -69.55785  eV     1   --> B              
     e(  9 -  9) =     -7.76097  eV     1   --> B              
     e( 10 - 10) =     -7.68819  eV     1   --> A              
     e( 11 - 11) =      2.95820  eV     1   --> B              
     e( 12 - 12) =      3.01662  eV     1   --> A              
     e( 13 - 13) =      3.62440  eV     1   --> A              
     e( 14 - 14) =      3.71608  eV     1   --> B              
     e( 15 - 15) =      3.81695  eV     1   --> B              
     e( 16 - 16) =      3.83415  eV     1   --> A              
     e( 17 - 17) =      4.45621  eV     1   --> B              
     e( 18 - 18) =      4.46698  eV     1   --> A              
     e( 19 - 19) =      4.58106  eV     1   --> A              
     e( 20 - 20) =      4.65592  eV     1   --> B              
     e( 21 - 21) =      5.21199  eV     1   --> A              
     e( 22 - 22) =      5.30253  eV     1   --> B              
     e( 23 - 23) =      7.48160  eV     1   --> B              
     e( 24 - 24) =      7.58405  eV     1   --> A              
     e( 25 - 25) =      7.92057  eV     1   --> A              
     e( 26 - 26) =      8.10069  eV     1   --> B              
     e( 27 - 27) =     14.67819  eV     1   --> B              
     e( 28 - 28) =     15.20438  eV     1   --> A              
     e( 29 - 29) =     17.46720  eV     1   --> B              
     e( 30 - 30) =     17.66615  eV     1   --> A              
     e( 31 - 31) =     19.96403  eV     1   --> A              
     e( 32 - 32) =     21.01052  eV     1   --> B              
     e( 33 - 33) =     22.77463  eV     1   --> A              
     e( 34 - 34) =     23.05409  eV     1   --> B              
     e( 35 - 35) =     24.47877  eV     1   --> B              
     e( 36 - 36) =     26.43972  eV     1   --> A              

 **************************************************************************

 **************************************************************************

                    xk=(  -0.50000,  -0.28868,  -0.18726  )

     Band symmetry, C_2  (2)    point group:

     e(  1 -  2) =   -115.91953  eV     2   --> A              
     e(  1 -  2) =   -115.91953  eV     2   --> B              
     e(  3 -  3) =    -69.59161  eV     1   --> A              
     e(  4 -  4) =    -69.58956  eV     1   --> B              
     e(  5 -  5) =    -69.57815  eV     1   --> B              
     e(  6 -  6) =    -69.57435  eV     1   --> A              
     e(  7 -  7) =    -69.57404  eV     1   --> B              
     e(  8 -  8) =    -69.56189  eV     1   --> A              
     e(  9 -  9) =     -7.79716  eV     1   --> B              
     e( 10 - 10) =     -7.65834  eV     1   --> A              
     e( 11 - 11) =      2.97857  eV     1   --> B              
     e( 12 - 12) =      3.09894  eV     1   --> A              
     e( 13 - 13) =      3.56805  eV     1   --> A              
     e( 14 - 14) =      3.80926  eV     1   --> B              
     e( 15 - 15) =      3.82456  eV     1   --> B              
     e( 16 - 16) =      3.83700  eV     1   --> A              
     e( 17 - 17) =      4.46876  eV     1   --> A              
     e( 18 - 18) =      4.52036  eV     1   --> B              
     e( 19 - 19) =      4.52395  eV     1   --> A              
     e( 20 - 20) =      4.65510  eV     1   --> B              
     e( 21 - 21) =      5.17627  eV     1   --> A              
     e( 22 - 22) =      5.38312  eV     1   --> B              
     e( 23 - 23) =      7.19602  eV     1   --> A              
     e( 24 - 24) =      7.29015  eV     1   --> B              
     e( 25 - 25) =      8.11313  eV     1   --> A              
     e( 26 - 26) =      8.14363  eV     1   --> B              
     e( 27 - 27) =     14.62127  eV     1   --> B              
     e( 28 - 28) =     15.54292  eV     1   --> A              
     e( 29 - 29) =     17.30214  eV     1   --> B              
     e( 30 - 30) =     17.67445  eV     1   --> A              
     e( 31 - 31) =     19.72789  eV     1   --> A              
     e( 32 - 32) =     21.56286  eV     1   --> B              
     e( 33 - 33) =     22.64817  eV     1   --> A              
     e( 34 - 34) =     23.20191  eV     1   --> B              
     e( 35 - 35) =     23.91875  eV     1   --> B              
     e( 36 - 36) =     27.40643  eV     1   --> A              

 **************************************************************************

 **************************************************************************

                    xk=(  -0.50000,  -0.28868,  -0.12484  )

     Band symmetry, C_2  (2)    point group:

     e(  1 -  2) =   -115.91953  eV     2   --> A              
     e(  1 -  2) =   -115.91953  eV     2   --> B              
     e(  3 -  3) =    -69.59551  eV     1   --> A              
     e(  4 -  4) =    -69.58950  eV     1   --> A              
     e(  5 -  5) =    -69.58760  eV     1   --> B              
     e(  6 -  6) =    -69.58487  eV     1   --> B              
     e(  7 -  7) =    -69.57871  eV     1   --> B              
     e(  8 -  8) =    -69.56810  eV     1   --> A              
     e(  9 -  9) =     -7.82620  eV     1   --> B              
     e( 10 - 10) =     -7.63651  eV     1   --> A              
     e( 11 - 11) =      3.00560  eV     1   --> B              
     e( 12 - 12) =      3.20772  eV     1   --> A              
     e( 13 - 13) =      3.52019  eV     1   --> A              
     e( 14 - 14) =      3.85367  eV     1   --> B              
     e( 15 - 15) =      3.85885  eV     1   --> A              
     e( 16 - 16) =      3.86476  eV     1   --> B              
     e( 17 - 17) =      4.44315  eV     1   --> A              
     e( 18 - 18) =      4.44884  eV     1   --> A              
     e( 19 - 19) =      4.49982  eV     1   --> B              
     e( 20 - 20) =      4.68507  eV     1   --> B              
     e( 21 - 21) =      5.18285  eV     1   --> A              
     e( 22 - 22) =      5.44122  eV     1   --> B              
     e( 23 - 23) =      6.79643  eV     1   --> A              
     e( 24 - 24) =      7.10765  eV     1   --> B              
     e( 25 - 25) =      8.11554  eV     1   --> B              
     e( 26 - 26) =      8.27073  eV     1   --> A              
     e( 27 - 27) =     14.70861  eV     1   --> B              
     e( 28 - 28) =     15.82430  eV     1   --> A              
     e( 29 - 29) =     17.11089  eV     1   --> B              
     e( 30 - 30) =     17.63134  eV     1   --> A              
     e( 31 - 31) =     19.69247  eV     1   --> A              
     e( 32 - 32) =     21.75126  eV     1   --> B              
     e( 33 - 33) =     22.54896  eV     1   --> A              
     e( 34 - 34) =     23.30954  eV     1   --> B              
     e( 35 - 35) =     24.02193  eV     1   --> B              
     e( 36 - 36) =     27.88171  eV     1   --> A              

 **************************************************************************

 **************************************************************************

                    xk=(  -0.50000,  -0.28868,  -0.06242  )

     Band symmetry, C_2  (2)    point group:

     e(  1 -  2) =   -115.91950  eV     2   --> A              
     e(  1 -  2) =   -115.91950  eV     2   --> B              
     e(  3 -  3) =    -69.59110  eV     1   --> A              
     e(  4 -  4) =    -69.58512  eV     1   --> B              
     e(  5 -  5) =    -69.58418  eV     1   --> B              
     e(  6 -  6) =    -69.57446  eV     1   --> A              
     e(  7 -  7) =    -69.56622  eV     1   --> A              
     e(  8 -  8) =    -69.55888  eV     1   --> B              
     e(  9 -  9) =     -7.84508  eV     1   --> B              
     e( 10 - 10) =     -7.62234  eV     1   --> A              
     e( 11 - 11) =      3.04843  eV     1   --> B              
     e( 12 - 12) =      3.30565  eV     1   --> A              
     e( 13 - 13) =      3.50178  eV     1   --> A              
     e( 14 - 14) =      3.90312  eV     1   --> B              
     e( 15 - 15) =      3.90801  eV     1   --> B              
     e( 16 - 16) =      3.90890  eV     1   --> A              
     e( 17 - 17) =      4.41539  eV     1   --> A              
     e( 18 - 18) =      4.44720  eV     1   --> A              
     e( 19 - 19) =      4.52211  eV     1   --> B              
     e( 20 - 20) =      4.71018  eV     1   --> B              
     e( 21 - 21) =      5.23514  eV     1   --> A              
     e( 22 - 22) =      5.50823  eV     1   --> B              
     e( 23 - 23) =      6.49773  eV     1   --> A              
     e( 24 - 24) =      6.99725  eV     1   --> B              
     e( 25 - 25) =      8.03235  eV     1   --> B              
     e( 26 - 26) =      8.37151  eV     1   --> A              
     e( 27 - 27) =     14.85337  eV     1   --> B              
     e( 28 - 28) =     16.00456  eV     1   --> A              
     e( 29 - 29) =     16.93598  eV     1   --> B              
     e( 30 - 30) =     17.58306  eV     1   --> A              
     e( 31 - 31) =     19.76030  eV     1   --> A              
     e( 32 - 32) =     21.63905  eV     1   --> B              
     e( 33 - 33) =     22.49216  eV     1   --> A              
     e( 34 - 34) =     23.38709  eV     1   --> B              
     e( 35 - 35) =     24.62176  eV     1   --> B              
     e( 36 - 36) =     27.86288  eV     1   --> A              

 **************************************************************************

 **************************************************************************

                    xk=(  -0.50000,  -0.28868,   0.00000  )

     Band symmetry, C_2  (2)    point group:

     e(  1 -  2) =   -115.91948  eV     2   --> A              
     e(  1 -  2) =   -115.91948  eV     2   --> B              
     e(  3 -  3) =    -69.57409  eV     1   --> A              
     e(  4 -  4) =    -69.56674  eV     1   --> A              
     e(  5 -  5) =    -69.56248  eV     1   --> B              
     e(  6 -  6) =    -69.55973  eV     1   --> B              
     e(  7 -  7) =    -69.55519  eV     1   --> B              
     e(  8 -  8) =    -69.54919  eV     1   --> A              
     e(  9 -  9) =     -7.85109  eV     1   --> B              
     e( 10 - 10) =     -7.61687  eV     1   --> A              
     e( 11 - 11) =      3.07620  eV     1   --> B              
     e( 12 - 12) =      3.36090  eV     1   --> A              
     e( 13 - 13) =      3.51126  eV     1   --> A              
     e( 14 - 14) =      3.92463  eV     1   --> B              
     e( 15 - 15) =      3.95327  eV     1   --> A              
     e( 16 - 16) =      3.96673  eV     1   --> B              
     e( 17 - 17) =      4.37207  eV     1   --> A              
     e( 18 - 18) =      4.48911  eV     1   --> A              
     e( 19 - 19) =      4.59890  eV     1   --> B              
     e( 20 - 20) =      4.73011  eV     1   --> B              
     e( 21 - 21) =      5.28285  eV     1   --> A              
     e( 22 - 22) =      5.54316  eV     1   --> B              
     e( 23 - 23) =      6.36891  eV     1   --> A              
     e( 24 - 24) =      6.98294  eV     1   --> B              
     e( 25 - 25) =      7.99361  eV     1   --> B              
     e( 26 - 26) =      8.41989  eV     1   --> A              
     e( 27 - 27) =     14.92719  eV     1   --> B              
     e( 28 - 28) =     16.07256  eV     1   --> A              
     e( 29 - 29) =     16.86870  eV     1   --> B              
     e( 30 - 30) =     17.55836  eV     1   --> A              
     e( 31 - 31) =     19.80888  eV     1   --> A              
     e( 32 - 32) =     21.57371  eV     1   --> B              
     e( 33 - 33) =     22.47807  eV     1   --> A              
     e( 34 - 34) =     23.43315  eV     1   --> B              
     e( 35 - 35) =     24.99129  eV     1   --> B              
     e( 36 - 36) =     27.80425  eV     1   --> A              

 **************************************************************************

 **************************************************************************

                    xk=(  -0.45455,  -0.26243,   0.00000  )

     point group C_1 (1)    
     there are  1 classes
     the character table:

       E    
A      1.00

     the symmetry operations in each class and the name of the first element:

     E        1
                                                                 

     Band symmetry, C_1 (1)     point group:

     e(  1 -  2) =   -115.91950  eV     2   -->   2 A              
     e(  3 -  3) =    -69.58567  eV     1   --> A              
     e(  4 -  4) =    -69.57783  eV     1   --> A              
     e(  5 -  5) =    -69.57631  eV     1   --> A              
     e(  6 -  6) =    -69.57580  eV     1   --> A              
     e(  7 -  7) =    -69.56369  eV     1   --> A              
     e(  8 -  8) =    -69.55266  eV     1   --> A              
     e(  9 -  9) =     -7.87292  eV     1   --> A              
     e( 10 - 10) =     -7.61586  eV     1   --> A              
     e( 11 - 11) =      3.04714  eV     1   --> A              
     e( 12 - 12) =      3.34769  eV     1   --> A              
     e( 13 - 13) =      3.49662  eV     1   --> A              
     e( 14 - 14) =      3.88905  eV     1   --> A              
     e( 15 - 15) =      3.92028  eV     1   --> A              
     e( 16 - 16) =      3.95241  eV     1   --> A              
     e( 17 - 17) =      4.36281  eV     1   --> A              
     e( 18 - 18) =      4.43655  eV     1   --> A              
     e( 19 - 19) =      4.57840  eV     1   --> A              
     e( 20 - 20) =      4.76433  eV     1   --> A              
     e( 21 - 21) =      5.19935  eV     1   --> A              
     e( 22 - 22) =      5.61572  eV     1   --> A              
     e( 23 - 23) =      6.37762  eV     1   --> A              
     e( 24 - 24) =      6.99762  eV     1   --> A              
     e( 25 - 25) =      8.05350  eV     1   --> A              
     e( 26 - 26) =      8.42441  eV     1   --> A              
     e( 27 - 27) =     14.73181  eV     1   --> A              
     e( 28 - 28) =     16.23069  eV     1   --> A              
     e( 29 - 29) =     16.86668  eV     1   --> A              
     e( 30 - 30) =     17.58141  eV     1   --> A              
     e( 31 - 31) =     19.83456  eV     1   --> A              
     e( 32 - 32) =     21.53647  eV     1   --> A              
     e( 33 - 33) =     22.49344  eV     1   --> A              
     e( 34 - 34) =     23.39811  eV     1   --> A              
     e( 35 - 35) =     24.99988  eV     1   --> A              
     e( 36 - 36) =     27.78381  eV     1   --> A              

 **************************************************************************

 **************************************************************************

                    xk=(  -0.40909,  -0.23619,   0.00000  )

     Band symmetry, C_1 (1)     point group:

     e(  1 -  2) =   -115.91954  eV     2   -->   2 A              
     e(  3 -  3) =    -69.60269  eV     1   --> A              
     e(  4 -  4) =    -69.59282  eV     1   --> A              
     e(  5 -  5) =    -69.58028  eV     1   --> A              
     e(  6 -  6) =    -69.57452  eV     1   --> A              
     e(  7 -  7) =    -69.56514  eV     1   --> A              
     e(  8 -  8) =    -69.55330  eV     1   --> A              
     e(  9 -  9) =     -7.92990  eV     1   --> A              
     e( 10 - 10) =     -7.61565  eV     1   --> A              
     e( 11 - 11) =      3.01464  eV     1   --> A              
     e( 12 - 12) =      3.35265  eV     1   --> A              
     e( 13 - 13) =      3.47977  eV     1   --> A              
     e( 14 - 14) =      3.80189  eV     1   --> A              
     e( 15 - 15) =      3.85414  eV     1   --> A              
     e( 16 - 16) =      3.97127  eV     1   --> A              
     e( 17 - 17) =      4.30604  eV     1   --> A              
     e( 18 - 18) =      4.40847  eV     1   --> A              
     e( 19 - 19) =      4.57385  eV     1   --> A              
     e( 20 - 20) =      4.81919  eV     1   --> A              
     e( 21 - 21) =      5.16607  eV     1   --> A              
     e( 22 - 22) =      5.70468  eV     1   --> A              
     e( 23 - 23) =      6.45912  eV     1   --> A              
     e( 24 - 24) =      7.08746  eV     1   --> A              
     e( 25 - 25) =      8.17772  eV     1   --> A              
     e( 26 - 26) =      8.47774  eV     1   --> A              
     e( 27 - 27) =     14.31171  eV     1   --> A              
     e( 28 - 28) =     16.55487  eV     1   --> A              
     e( 29 - 29) =     16.86196  eV     1   --> A              
     e( 30 - 30) =     17.65406  eV     1   --> A              
     e( 31 - 31) =     19.92243  eV     1   --> A              
     e( 32 - 32) =     21.48994  eV     1   --> A              
     e( 33 - 33) =     22.54419  eV     1   --> A              
     e( 34 - 34) =     23.34898  eV     1   --> A              
     e( 35 - 35) =     25.01239  eV     1   --> A              
     e( 36 - 36) =     27.70353  eV     1   --> A              

 **************************************************************************

 **************************************************************************

                    xk=(  -0.36364,  -0.20995,   0.00000  )

     Band symmetry, C_1 (1)     point group:

     e(  1 -  2) =   -115.91951  eV     2   -->   2 A              
     e(  3 -  3) =    -69.59548  eV     1   --> A              
     e(  4 -  4) =    -69.59045  eV     1   --> A              
     e(  5 -  5) =    -69.57948  eV     1   --> A              
     e(  6 -  6) =    -69.57527  eV     1   --> A              
     e(  7 -  7) =    -69.54841  eV     1   --> A              
     e(  8 -  8) =    -69.53944  eV     1   --> A              
     e(  9 -  9) =     -8.01024  eV     1   --> A              
     e( 10 - 10) =     -7.62374  eV     1   --> A              
     e( 11 - 11) =      2.99094  eV     1   --> A              
     e( 12 - 12) =      3.35460  eV     1   --> A              
     e( 13 - 13) =      3.47507  eV     1   --> A              
     e( 14 - 14) =      3.72661  eV     1   --> A              
     e( 15 - 15) =      3.84778  eV     1   --> A              
     e( 16 - 16) =      4.01271  eV     1   --> A              
     e( 17 - 17) =      4.25014  eV     1   --> A              
     e( 18 - 18) =      4.41173  eV     1   --> A              
     e( 19 - 19) =      4.55083  eV     1   --> A              
     e( 20 - 20) =      4.80900  eV     1   --> A              
     e( 21 - 21) =      5.20178  eV     1   --> A              
     e( 22 - 22) =      5.82211  eV     1   --> A              
     e( 23 - 23) =      6.66507  eV     1   --> A              
     e( 24 - 24) =      7.25086  eV     1   --> A              
     e( 25 - 25) =      8.36047  eV     1   --> A              
     e( 26 - 26) =      8.59477  eV     1   --> A              
     e( 27 - 27) =     13.82407  eV     1   --> A              
     e( 28 - 28) =     16.74633  eV     1   --> A              
     e( 29 - 29) =     16.93911  eV     1   --> A              
     e( 30 - 30) =     17.81963  eV     1   --> A              
     e( 31 - 31) =     20.04805  eV     1   --> A              
     e( 32 - 32) =     21.51833  eV     1   --> A              
     e( 33 - 33) =     22.61417  eV     1   --> A              
     e( 34 - 34) =     23.29931  eV     1   --> A              
     e( 35 - 35) =     25.00641  eV     1   --> A              
     e( 36 - 36) =     27.57464  eV     1   --> A              

 **************************************************************************

 **************************************************************************

                    xk=(  -0.31818,  -0.18370,   0.00000  )

     Band symmetry, C_1 (1)     point group:

     e(  1 -  1) =   -115.91956  eV     1   --> A              
     e(  2 -  2) =   -115.91945  eV     1   --> A              
     e(  3 -  3) =    -69.61793  eV     1   --> A              
     e(  4 -  4) =    -69.58403  eV     1   --> A              
     e(  5 -  5) =    -69.57947  eV     1   --> A              
     e(  6 -  6) =    -69.56471  eV     1   --> A              
     e(  7 -  7) =    -69.54053  eV     1   --> A              
     e(  8 -  8) =    -69.53319  eV     1   --> A              
     e(  9 -  9) =     -8.10462  eV     1   --> A              
     e( 10 - 10) =     -7.64092  eV     1   --> A              
     e( 11 - 11) =      2.97172  eV     1   --> A              
     e( 12 - 12) =      3.36579  eV     1   --> A              
     e( 13 - 13) =      3.45852  eV     1   --> A              
     e( 14 - 14) =      3.64665  eV     1   --> A              
     e( 15 - 15) =      3.76782  eV     1   --> A              
     e( 16 - 16) =      4.03020  eV     1   --> A              
     e( 17 - 17) =      4.17038  eV     1   --> A              
     e( 18 - 18) =      4.40435  eV     1   --> A              
     e( 19 - 19) =      4.54613  eV     1   --> A              
     e( 20 - 20) =      4.79763  eV     1   --> A              
     e( 21 - 21) =      5.17385  eV     1   --> A              
     e( 22 - 22) =      6.08892  eV     1   --> A              
     e( 23 - 23) =      6.91377  eV     1   --> A              
     e( 24 - 24) =      7.43816  eV     1   --> A              
     e( 25 - 25) =      8.55596  eV     1   --> A              
     e( 26 - 26) =      8.70459  eV     1   --> A              
     e( 27 - 27) =     13.29423  eV     1   --> A              
     e( 28 - 28) =     16.59181  eV     1   --> A              
     e( 29 - 29) =     17.18351  eV     1   --> A              
     e( 30 - 30) =     18.10017  eV     1   --> A              
     e( 31 - 31) =     20.24030  eV     1   --> A              
     e( 32 - 32) =     21.71833  eV     1   --> A              
     e( 33 - 33) =     22.63871  eV     1   --> A              
     e( 34 - 34) =     23.28990  eV     1   --> A              
     e( 35 - 35) =     24.93555  eV     1   --> A              
     e( 36 - 36) =     27.47181  eV     1   --> A              

 **************************************************************************

 **************************************************************************

                    xk=(  -0.27273,  -0.15746,   0.00000  )

     Band symmetry, C_1 (1)     point group:

     e(  1 -  1) =   -115.91961  eV     1   --> A              
     e(  2 -  2) =   -115.91944  eV     1   --> A              
     e(  3 -  3) =    -69.60452  eV     1   --> A              
     e(  4 -  4) =    -69.58583  eV     1   --> A              
     e(  5 -  5) =    -69.58064  eV     1   --> A              
     e(  6 -  6) =    -69.56462  eV     1   --> A              
     e(  7 -  7) =    -69.55275  eV     1   --> A              
     e(  8 -  8) =    -69.53654  eV     1   --> A              
     e(  9 -  9) =     -8.20470  eV     1   --> A              
     e( 10 - 10) =     -7.66682  eV     1   --> A              
     e( 11 - 11) =      3.01082  eV     1   --> A              
     e( 12 - 12) =      3.34967  eV     1   --> A              
     e( 13 - 13) =      3.41995  eV     1   --> A              
     e( 14 - 14) =      3.57188  eV     1   --> A              
     e( 15 - 15) =      3.65184  eV     1   --> A              
     e( 16 - 16) =      3.94650  eV     1   --> A              
     e( 17 - 17) =      4.19814  eV     1   --> A              
     e( 18 - 18) =      4.37946  eV     1   --> A              
     e( 19 - 19) =      4.56105  eV     1   --> A              
     e( 20 - 20) =      4.80666  eV     1   --> A              
     e( 21 - 21) =      5.03520  eV     1   --> A              
     e( 22 - 22) =      6.47752  eV     1   --> A              
     e( 23 - 23) =      7.23926  eV     1   --> A              
     e( 24 - 24) =      7.62445  eV     1   --> A              
     e( 25 - 25) =      8.73570  eV     1   --> A              
     e( 26 - 26) =      8.81677  eV     1   --> A              
     e( 27 - 27) =     12.74965  eV     1   --> A              
     e( 28 - 28) =     16.30784  eV     1   --> A              
     e( 29 - 29) =     17.33988  eV     1   --> A              
     e( 30 - 30) =     18.52114  eV     1   --> A              
     e( 31 - 31) =     20.53950  eV     1   --> A              
     e( 32 - 32) =     22.10367  eV     1   --> A              
     e( 33 - 33) =     22.57561  eV     1   --> A              
     e( 34 - 34) =     23.34794  eV     1   --> A              
     e( 35 - 35) =     24.79531  eV     1   --> A              
     e( 36 - 36) =     27.28456  eV     1   --> A              

 **************************************************************************

 **************************************************************************

                    xk=(  -0.22727,  -0.13122,   0.00000  )

     Band symmetry, C_1 (1)     point group:

     e(  1 -  1) =   -115.91960  eV     1   --> A              
     e(  2 -  2) =   -115.91942  eV     1   --> A              
     e(  3 -  3) =    -69.57312  eV     1   --> A              
     e(  4 -  4) =    -69.56935  eV     1   --> A              
     e(  5 -  5) =    -69.56214  eV     1   --> A              
     e(  6 -  6) =    -69.55182  eV     1   --> A              
     e(  7 -  7) =    -69.55013  eV     1   --> A              
     e(  8 -  8) =    -69.54784  eV     1   --> A              
     e(  9 -  9) =     -8.30233  eV     1   --> A              
     e( 10 - 10) =     -7.69757  eV     1   --> A              
     e( 11 - 11) =      3.05381  eV     1   --> A              
     e( 12 - 12) =      3.36796  eV     1   --> A              
     e( 13 - 13) =      3.37005  eV     1   --> A              
     e( 14 - 14) =      3.53180  eV     1   --> A              
     e( 15 - 15) =      3.60230  eV     1   --> A              
     e( 16 - 16) =      3.89498  eV     1   --> A              
     e( 17 - 17) =      4.24943  eV     1   --> A              
     e( 18 - 18) =      4.34693  eV     1   --> A              
     e( 19 - 19) =      4.55599  eV     1   --> A              
     e( 20 - 20) =      4.83716  eV     1   --> A              
     e( 21 - 21) =      4.90940  eV     1   --> A              
     e( 22 - 22) =      6.92313  eV     1   --> A              
     e( 23 - 23) =      7.63218  eV     1   --> A              
     e( 24 - 24) =      7.85195  eV     1   --> A              
     e( 25 - 25) =      8.90879  eV     1   --> A              
     e( 26 - 26) =      8.94237  eV     1   --> A              
     e( 27 - 27) =     12.21781  eV     1   --> A              
     e( 28 - 28) =     15.91389  eV     1   --> A              
     e( 29 - 29) =     17.42534  eV     1   --> A              
     e( 30 - 30) =     19.07304  eV     1   --> A              
     e( 31 - 31) =     20.96409  eV     1   --> A              
     e( 32 - 32) =     22.45901  eV     1   --> A              
     e( 33 - 33) =     22.61267  eV     1   --> A              
     e( 34 - 34) =     23.44266  eV     1   --> A              
     e( 35 - 35) =     24.64257  eV     1   --> A              
     e( 36 - 36) =     26.84668  eV     1   --> A              

 **************************************************************************

 **************************************************************************

                    xk=(  -0.18182,  -0.10497,   0.00000  )

     Band symmetry, C_1 (1)     point group:

     e(  1 -  1) =   -115.91962  eV     1   --> A              
     e(  2 -  2) =   -115.91941  eV     1   --> A              
     e(  3 -  3) =    -69.57610  eV     1   --> A              
     e(  4 -  4) =    -69.56765  eV     1   --> A              
     e(  5 -  5) =    -69.55950  eV     1   --> A              
     e(  6 -  6) =    -69.54727  eV     1   --> A              
     e(  7 -  7) =    -69.54417  eV     1   --> A              
     e(  8 -  8) =    -69.54207  eV     1   --> A              
     e(  9 -  9) =     -8.39151  eV     1   --> A              
     e( 10 - 10) =     -7.73075  eV     1   --> A              
     e( 11 - 11) =      3.10472  eV     1   --> A              
     e( 12 - 12) =      3.33935  eV     1   --> A              
     e( 13 - 13) =      3.37345  eV     1   --> A              
     e( 14 - 14) =      3.45885  eV     1   --> A              
     e( 15 - 15) =      3.54182  eV     1   --> A              
     e( 16 - 16) =      3.80775  eV     1   --> A              
     e( 17 - 17) =      4.28474  eV     1   --> A              
     e( 18 - 18) =      4.34980  eV     1   --> A              
     e( 19 - 19) =      4.55920  eV     1   --> A              
     e( 20 - 20) =      4.79644  eV     1   --> A              
     e( 21 - 21) =      4.86225  eV     1   --> A              
     e( 22 - 22) =      7.36299  eV     1   --> A              
     e( 23 - 23) =      7.97999  eV     1   --> A              
     e( 24 - 24) =      8.05434  eV     1   --> A              
     e( 25 - 25) =      9.03678  eV     1   --> A              
     e( 26 - 26) =      9.06613  eV     1   --> A              
     e( 27 - 27) =     11.67743  eV     1   --> A              
     e( 28 - 28) =     15.46379  eV     1   --> A              
     e( 29 - 29) =     17.46173  eV     1   --> A              
     e( 30 - 30) =     19.71126  eV     1   --> A              
     e( 31 - 31) =     21.48861  eV     1   --> A              
     e( 32 - 32) =     22.32061  eV     1   --> A              
     e( 33 - 33) =     23.11450  eV     1   --> A              
     e( 34 - 34) =     23.49859  eV     1   --> A              
     e( 35 - 35) =     24.59975  eV     1   --> A              
     e( 36 - 36) =     26.63576  eV     1   --> A              

 **************************************************************************

 **************************************************************************

                    xk=(  -0.13636,  -0.07873,   0.00000  )

     Band symmetry, C_1 (1)     point group:

     e(  1 -  1) =   -115.91962  eV     1   --> A              
     e(  2 -  2) =   -115.91946  eV     1   --> A              
     e(  3 -  3) =    -69.57493  eV     1   --> A              
     e(  4 -  4) =    -69.57255  eV     1   --> A              
     e(  5 -  5) =    -69.56376  eV     1   --> A              
     e(  6 -  6) =    -69.56201  eV     1   --> A              
     e(  7 -  7) =    -69.54209  eV     1   --> A              
     e(  8 -  8) =    -69.53739  eV     1   --> A              
     e(  9 -  9) =     -8.46661  eV     1   --> A              
     e( 10 - 10) =     -7.76128  eV     1   --> A              
     e( 11 - 11) =      3.14072  eV     1   --> A              
     e( 12 - 12) =      3.29209  eV     1   --> A              
     e( 13 - 13) =      3.38111  eV     1   --> A              
     e( 14 - 14) =      3.42232  eV     1   --> A              
     e( 15 - 15) =      3.50388  eV     1   --> A              
     e( 16 - 16) =      3.72458  eV     1   --> A              
     e( 17 - 17) =      4.30087  eV     1   --> A              
     e( 18 - 18) =      4.34131  eV     1   --> A              
     e( 19 - 19) =      4.52176  eV     1   --> A              
     e( 20 - 20) =      4.66153  eV     1   --> A              
     e( 21 - 21) =      4.88364  eV     1   --> A              
     e( 22 - 22) =      7.80043  eV     1   --> A              
     e( 23 - 23) =      8.23616  eV     1   --> A              
     e( 24 - 24) =      8.33131  eV     1   --> A              
     e( 25 - 25) =      9.14649  eV     1   --> A              
     e( 26 - 26) =      9.15870  eV     1   --> A              
     e( 27 - 27) =     11.15663  eV     1   --> A              
     e( 28 - 28) =     15.01623  eV     1   --> A              
     e( 29 - 29) =     17.47349  eV     1   --> A              
     e( 30 - 30) =     20.41384  eV     1   --> A              
     e( 31 - 31) =     22.06283  eV     1   --> A              
     e( 32 - 32) =     22.19068  eV     1   --> A              
     e( 33 - 33) =     23.36906  eV     1   --> A              
     e( 34 - 34) =     23.46686  eV     1   --> A              
     e( 35 - 35) =     24.88430  eV     1   --> A              
     e( 36 - 36) =     26.66889  eV     1   --> A              

 **************************************************************************

 **************************************************************************

                    xk=(  -0.09091,  -0.05249,   0.00000  )

     Band symmetry, C_1 (1)     point group:

     e(  1 -  1) =   -115.91959  eV     1   --> A              
     e(  2 -  2) =   -115.91941  eV     1   --> A              
     e(  3 -  3) =    -69.56384  eV     1   --> A              
     e(  4 -  4) =    -69.55018  eV     1   --> A              
     e(  5 -  5) =    -69.54237  eV     1   --> A              
     e(  6 -  6) =    -69.53894  eV     1   --> A              
     e(  7 -  7) =    -69.52580  eV     1   --> A              
     e(  8 -  8) =    -69.51943  eV     1   --> A              
     e(  9 -  9) =     -8.52329  eV     1   --> A              
     e( 10 - 10) =     -7.78513  eV     1   --> A              
     e( 11 - 11) =      3.20126  eV     1   --> A              
     e( 12 - 12) =      3.28137  eV     1   --> A              
     e( 13 - 13) =      3.40164  eV     1   --> A              
     e( 14 - 14) =      3.44441  eV     1   --> A              
     e( 15 - 15) =      3.47952  eV     1   --> A              
     e( 16 - 16) =      3.67342  eV     1   --> A              
     e( 17 - 17) =      4.35217  eV     1   --> A              
     e( 18 - 18) =      4.35704  eV     1   --> A              
     e( 19 - 19) =      4.53558  eV     1   --> A              
     e( 20 - 20) =      4.63332  eV     1   --> A              
     e( 21 - 21) =      4.95532  eV     1   --> A              
     e( 22 - 22) =      8.18427  eV     1   --> A              
     e( 23 - 23) =      8.39060  eV     1   --> A              
     e( 24 - 24) =      8.71240  eV     1   --> A              
     e( 25 - 25) =      9.23912  eV     1   --> A              
     e( 26 - 26) =      9.24455  eV     1   --> A              
     e( 27 - 27) =     10.66698  eV     1   --> A              
     e( 28 - 28) =     14.63702  eV     1   --> A              
     e( 29 - 29) =     17.48607  eV     1   --> A              
     e( 30 - 30) =     21.13464  eV     1   --> A              
     e( 31 - 31) =     22.09482  eV     1   --> A              
     e( 32 - 32) =     22.64279  eV     1   --> A              
     e( 33 - 33) =     23.36069  eV     1   --> A              
     e( 34 - 34) =     23.38037  eV     1   --> A              
     e( 35 - 35) =     25.41311  eV     1   --> A              
     e( 36 - 36) =     26.92862  eV     1   --> A              

 **************************************************************************

 **************************************************************************

                    xk=(  -0.04545,  -0.02624,   0.00000  )

     Band symmetry, C_1 (1)     point group:

     e(  1 -  1) =   -115.91964  eV     1   --> A              
     e(  2 -  2) =   -115.91944  eV     1   --> A              
     e(  3 -  3) =    -69.57192  eV     1   --> A              
     e(  4 -  4) =    -69.56129  eV     1   --> A              
     e(  5 -  5) =    -69.55766  eV     1   --> A              
     e(  6 -  6) =    -69.55309  eV     1   --> A              
     e(  7 -  7) =    -69.54369  eV     1   --> A              
     e(  8 -  8) =    -69.52774  eV     1   --> A              
     e(  9 -  9) =     -8.55921  eV     1   --> A              
     e( 10 - 10) =     -7.80059  eV     1   --> A              
     e( 11 - 11) =      3.21757  eV     1   --> A              
     e( 12 - 12) =      3.24765  eV     1   --> A              
     e( 13 - 13) =      3.40189  eV     1   --> A              
     e( 14 - 14) =      3.40939  eV     1   --> A              
     e( 15 - 15) =      3.41562  eV     1   --> A              
     e( 16 - 16) =      3.63775  eV     1   --> A              
     e( 17 - 17) =      4.33003  eV     1   --> A              
     e( 18 - 18) =      4.34022  eV     1   --> A              
     e( 19 - 19) =      4.46671  eV     1   --> A              
     e( 20 - 20) =      4.52567  eV     1   --> A              
     e( 21 - 21) =      5.01023  eV     1   --> A              
     e( 22 - 22) =      8.41836  eV     1   --> A              
     e( 23 - 23) =      8.47126  eV     1   --> A              
     e( 24 - 24) =      9.06459  eV     1   --> A              
     e( 25 - 25) =      9.27505  eV     1   --> A              
     e( 26 - 26) =      9.28100  eV     1   --> A              
     e( 27 - 27) =     10.22016  eV     1   --> A              
     e( 28 - 28) =     14.37632  eV     1   --> A              
     e( 29 - 29) =     17.47653  eV     1   --> A              
     e( 30 - 30) =     21.73599  eV     1   --> A              
     e( 31 - 31) =     22.02672  eV     1   --> A              
     e( 32 - 32) =     23.07960  eV     1   --> A              
     e( 33 - 33) =     23.27247  eV     1   --> A              
     e( 34 - 34) =     23.28842  eV     1   --> A              
     e( 35 - 35) =     25.70810  eV     1   --> A              
     e( 36 - 36) =     27.28714  eV     1   --> A              

 **************************************************************************

 **************************************************************************

                    xk=(   0.00000,   0.00000,   0.00000  )

     point group C_2v (mm2) 
     there are  4 classes
     the character table:

       E     C2    s_v   s_v' 
A_1    1.00  1.00  1.00  1.00
A_2    1.00  1.00 -1.00 -1.00
B_1    1.00 -1.00  1.00 -1.00
B_2    1.00 -1.00 -1.00  1.00

     the symmetry operations in each class and the name of the first element:

     E        1
                                                                 
     C2       2
                                                                 
     s_v      4
                                                                 
     s_v'     3
                                                                 

     Band symmetry, C_2v (mm2)  point group:

     e(  1 -  1) =   -115.91965  eV     1   --> A_1  D_1  S_1  
     e(  2 -  2) =   -115.91952  eV     1   --> B_1  D_3  S_3  
     e(  3 -  4) =    -69.58682  eV     2   --> A_1  D_1  S_1  
     e(  3 -  4) =    -69.58682  eV     2   --> A_2  D_2  S_2  
     e(  5 -  5) =    -69.58430  eV     1   --> B_1  D_3  S_3  
     e(  6 -  7) =    -69.55499  eV     2   --> B_1  D_3  S_3  
     e(  6 -  7) =    -69.55499  eV     2   --> B_2  D_4  S_4  
     e(  8 -  8) =    -69.53202  eV     1   --> A_1  D_1  S_1  
     e(  9 -  9) =     -8.57138  eV     1   --> A_1  D_1  S_1  
     e( 10 - 10) =     -7.80693  eV     1   --> B_1  D_3  S_3  
     e( 11 - 11) =      3.21612  eV     1   --> B_2  D_4  S_4  
     e( 12 - 12) =      3.21698  eV     1   --> B_1  D_3  S_3  
     e( 13 - 13) =      3.39917  eV     1   --> A_1  D_1  S_1  
     e( 14 - 14) =      3.41250  eV     1   --> A_2  D_2  S_2  
     e( 15 - 15) =      3.41293  eV     1   --> A_1  D_1  S_1  
     e( 16 - 16) =      3.61926  eV     1   --> B_1  D_3  S_3  
     e( 17 - 17) =      4.31546  eV     1   --> B_2  D_4  S_4  
     e( 18 - 18) =      4.31573  eV     1   --> B_1  D_3  S_3  
     e( 19 - 19) =      4.42292  eV     1   --> A_1  D_1  S_1  
     e( 20 - 20) =      4.42314  eV     1   --> A_2  D_2  S_2  
     e( 21 - 21) =      4.99170  eV     1   --> B_1  D_3  S_3  
     e( 22 - 22) =      8.47937  eV     1   --> A_2  D_2  S_2  
     e( 23 - 23) =      8.48053  eV     1   --> A_1  D_1  S_1  
     e( 24 - 25) =      9.26772  eV     2   --> B_1  D_3  S_3  
     e( 24 - 25) =      9.26772  eV     2   --> B_2  D_4  S_4  
     e( 26 - 26) =      9.28769  eV     1   --> A_1  D_1  S_1  
     e( 27 - 27) =      9.97697  eV     1   --> A_1  D_1  S_1  
     e( 28 - 28) =     14.28238  eV     1   --> B_1  D_3  S_3  
     e( 29 - 29) =     17.45634  eV     1   --> B_1  D_3  S_3  
     e( 30 - 30) =     21.99587  eV     1   --> B_1  D_3  S_3  
     e( 31 - 31) =     21.99712  eV     1   --> B_2  D_4  S_4  
     e( 32 - 32) =     23.22127  eV     1   --> A_1  D_1  S_1  
     e( 33 - 33) =     23.25154  eV     1   --> A_1  D_1  S_1  
     e( 34 - 34) =     23.25495  eV     1   --> A_2  D_2  S_2  
     e( 35 - 35) =     25.70962  eV     1   --> A_1  D_1  S_1  
     e( 36 - 36) =     27.49300  eV     1   --> B_2  D_4  S_4  

 **************************************************************************

 **************************************************************************

                    xk=(   0.00000,   0.00000,  -0.05202  )

     Band symmetry, C_2v (mm2)  point group:

     e(  1 -  1) =   -115.91964  eV     1   --> A_1  D_1  S_1  
     e(  2 -  2) =   -115.91948  eV     1   --> B_1  D_3  S_3  
     e(  3 -  3) =    -69.59222  eV     1   --> B_1  D_3  S_3  
     e(  4 -  5) =    -69.56163  eV     2   --> A_1  D_1  S_1  
     e(  4 -  5) =    -69.56163  eV     2   --> A_2  D_2  S_2  
     e(  6 -  7) =    -69.54793  eV     2   --> B_1  D_3  S_3  
     e(  6 -  7) =    -69.54793  eV     2   --> B_2  D_4  S_4  
     e(  8 -  8) =    -69.54289  eV     1   --> A_1  D_1  S_1  
     e(  9 -  9) =     -8.55896  eV     1   --> A_1  D_1  S_1  
     e( 10 - 10) =     -7.82017  eV     1   --> B_1  D_3  S_3  
     e( 11 - 11) =      3.24005  eV     1   --> B_2  D_4  S_4  
     e( 12 - 12) =      3.24087  eV     1   --> B_1  D_3  S_3  
     e( 13 - 13) =      3.36305  eV     1   --> A_1  D_1  S_1  
     e( 14 - 14) =      3.41180  eV     1   --> A_2  D_2  S_2  
     e( 15 - 15) =      3.41228  eV     1   --> A_1  D_1  S_1  
     e( 16 - 16) =      3.56698  eV     1   --> B_1  D_3  S_3  
     e( 17 - 17) =      4.33159  eV     1   --> B_2  D_4  S_4  
     e( 18 - 18) =      4.33182  eV     1   --> B_1  D_3  S_3  
     e( 19 - 19) =      4.44706  eV     1   --> A_1  D_1  S_1  
     e( 20 - 20) =      4.44732  eV     1   --> A_2  D_2  S_2  
     e( 21 - 21) =      5.05366  eV     1   --> B_1  D_3  S_3  
     e( 22 - 22) =      8.53095  eV     1   --> A_2  D_2  S_2  
     e( 23 - 23) =      8.53213  eV     1   --> A_1  D_1  S_1  
     e( 24 - 24) =      9.06091  eV     1   --> A_1  D_1  S_1  
     e( 25 - 26) =      9.28014  eV     2   --> B_1  D_3  S_3  
     e( 25 - 26) =      9.28014  eV     2   --> B_2  D_4  S_4  
     e( 27 - 27) =     10.22770  eV     1   --> A_1  D_1  S_1  
     e( 28 - 28) =     14.22821  eV     1   --> B_1  D_3  S_3  
     e( 29 - 29) =     17.52518  eV     1   --> B_1  D_3  S_3  
     e( 30 - 30) =     22.00530  eV     1   --> B_1  D_3  S_3  
     e( 31 - 31) =     22.00659  eV     1   --> B_2  D_4  S_4  
     e( 32 - 32) =     22.93773  eV     1   --> A_1  D_1  S_1  
     e( 33 - 33) =     23.19867  eV     1   --> A_1  D_1  S_1  
     e( 34 - 34) =     23.20203  eV     1   --> A_2  D_2  S_2  
     e( 35 - 35) =     25.80435  eV     1   --> A_1  D_1  S_1  
     e( 36 - 36) =     27.57161  eV     1   --> B_2  D_4  S_4  

 **************************************************************************

 **************************************************************************

                    xk=(   0.00000,   0.00000,  -0.10403  )

     Band symmetry, C_2v (mm2)  point group:

     e(  1 -  1) =   -115.91970  eV     1   --> A_1  D_1  S_1  
     e(  2 -  2) =   -115.91944  eV     1   --> B_1  D_3  S_3  
     e(  3 -  3) =    -69.60432  eV     1   --> A_1  D_1  S_1  
     e(  4 -  4) =    -69.58032  eV     1   --> B_1  D_3  S_3  
     e(  5 -  6) =    -69.55437  eV     2   --> B_1  D_3  S_3  
     e(  5 -  6) =    -69.55437  eV     2   --> B_2  D_4  S_4  
     e(  7 -  8) =    -69.53660  eV     2   --> A_1  D_1  S_1  
     e(  7 -  8) =    -69.53660  eV     2   --> A_2  D_2  S_2  
     e(  9 -  9) =     -8.52357  eV     1   --> A_1  D_1  S_1  
     e( 10 - 10) =     -7.86063  eV     1   --> B_1  D_3  S_3  
     e( 11 - 11) =      3.25457  eV     1   --> B_2  D_4  S_4  
     e( 12 - 12) =      3.25541  eV     1   --> B_1  D_3  S_3  
     e( 13 - 13) =      3.27012  eV     1   --> A_1  D_1  S_1  
     e( 14 - 14) =      3.40368  eV     1   --> A_2  D_2  S_2  
     e( 15 - 15) =      3.40413  eV     1   --> A_1  D_1  S_1  
     e( 16 - 16) =      3.43491  eV     1   --> B_1  D_3  S_3  
     e( 17 - 18) =      4.31784  eV     2   --> B_1  D_3  S_3  
     e( 17 - 18) =      4.31784  eV     2   --> B_2  D_4  S_4  
     e( 19 - 19) =      4.52257  eV     1   --> A_1  D_1  S_1  
     e( 20 - 20) =      4.52268  eV     1   --> A_2  D_2  S_2  
     e( 21 - 21) =      5.28919  eV     1   --> B_1  D_3  S_3  
     e( 22 - 22) =      8.57888  eV     1   --> A_2  D_2  S_2  
     e( 23 - 23) =      8.58004  eV     1   --> A_1  D_1  S_1  
     e( 24 - 24) =      8.58485  eV     1   --> A_1  D_1  S_1  
     e( 25 - 25) =      9.24632  eV     1   --> B_2  D_4  S_4  
     e( 26 - 26) =      9.24650  eV     1   --> B_1  D_3  S_3  
     e( 27 - 27) =     10.65315  eV     1   --> A_1  D_1  S_1  
     e( 28 - 28) =     14.08367  eV     1   --> B_1  D_3  S_3  
     e( 29 - 29) =     17.65081  eV     1   --> B_1  D_3  S_3  
     e( 30 - 30) =     22.00780  eV     1   --> B_1  D_3  S_3  
     e( 31 - 31) =     22.00919  eV     1   --> B_2  D_4  S_4  
     e( 32 - 32) =     22.25092  eV     1   --> A_1  D_1  S_1  
     e( 33 - 33) =     23.06706  eV     1   --> A_1  D_1  S_1  
     e( 34 - 34) =     23.07027  eV     1   --> A_2  D_2  S_2  
     e( 35 - 35) =     26.00536  eV     1   --> A_1  D_1  S_1  
     e( 36 - 36) =     27.78361  eV     1   --> B_2  D_4  S_4  

 **************************************************************************

 **************************************************************************

                    xk=(   0.00000,   0.00000,  -0.15605  )

     Band symmetry, C_2v (mm2)  point group:

     e(  1 -  1) =   -115.91962  eV     1   --> A_1  D_1  S_1  
     e(  2 -  2) =   -115.91943  eV     1   --> B_1  D_3  S_3  
     e(  3 -  3) =    -69.58703  eV     1   --> A_1  D_1  S_1  
     e(  4 -  4) =    -69.56594  eV     1   --> B_1  D_3  S_3  
     e(  5 -  6) =    -69.53021  eV     2   --> B_1  D_3  S_3  
     e(  5 -  6) =    -69.53021  eV     2   --> B_2  D_4  S_4  
     e(  7 -  8) =    -69.52663  eV     2   --> A_1  D_1  S_1  
     e(  7 -  8) =    -69.52663  eV     2   --> A_2  D_2  S_2  
     e(  9 -  9) =     -8.46519  eV     1   --> A_1  D_1  S_1  
     e( 10 - 10) =     -7.92347  eV     1   --> B_1  D_3  S_3  
     e( 11 - 11) =      3.22830  eV     1   --> A_1  D_1  S_1  
     e( 12 - 12) =      3.29024  eV     1   --> B_2  D_4  S_4  
     e( 13 - 13) =      3.29101  eV     1   --> B_1  D_3  S_3  
     e( 14 - 14) =      3.31841  eV     1   --> B_1  D_3  S_3  
     e( 15 - 15) =      3.41968  eV     1   --> A_2  D_2  S_2  
     e( 16 - 16) =      3.42019  eV     1   --> A_1  D_1  S_1  
     e( 17 - 17) =      4.37686  eV     1   --> B_2  D_4  S_4  
     e( 18 - 18) =      4.37700  eV     1   --> B_1  D_3  S_3  
     e( 19 - 19) =      4.54109  eV     1   --> A_1  D_1  S_1  
     e( 20 - 20) =      4.54127  eV     1   --> A_2  D_2  S_2  
     e( 21 - 21) =      5.65028  eV     1   --> B_1  D_3  S_3  
     e( 22 - 22) =      8.18175  eV     1   --> A_1  D_1  S_1  
     e( 23 - 23) =      8.65836  eV     1   --> A_2  D_2  S_2  
     e( 24 - 24) =      8.65944  eV     1   --> A_1  D_1  S_1  
     e( 25 - 25) =      9.20392  eV     1   --> B_2  D_4  S_4  
     e( 26 - 26) =      9.20420  eV     1   --> B_1  D_3  S_3  
     e( 27 - 27) =     11.15201  eV     1   --> A_1  D_1  S_1  
     e( 28 - 28) =     13.84342  eV     1   --> B_1  D_3  S_3  
     e( 29 - 29) =     17.87976  eV     1   --> B_1  D_3  S_3  
     e( 30 - 30) =     21.44742  eV     1   --> A_1  D_1  S_1  
     e( 31 - 31) =     22.03773  eV     1   --> B_1  D_3  S_3  
     e( 32 - 32) =     22.03929  eV     1   --> B_2  D_4  S_4  
     e( 33 - 33) =     22.87747  eV     1   --> A_1  D_1  S_1  
     e( 34 - 34) =     22.88048  eV     1   --> A_2  D_2  S_2  
     e( 35 - 35) =     26.26573  eV     1   --> A_1  D_1  S_1  
     e( 36 - 36) =     28.14682  eV     1   --> B_2  D_4  S_4  

 **************************************************************************

 **************************************************************************

                    xk=(   0.00000,   0.00000,  -0.20807  )

     Band symmetry, C_2v (mm2)  point group:

     e(  1 -  1) =   -115.91960  eV     1   --> A_1  D_1  S_1  
     e(  2 -  2) =   -115.91947  eV     1   --> B_1  D_3  S_3  
     e(  3 -  3) =    -69.58482  eV     1   --> A_1  D_1  S_1  
     e(  4 -  4) =    -69.56926  eV     1   --> B_1  D_3  S_3  
     e(  5 -  6) =    -69.52961  eV     2   --> B_1  D_3  S_3  
     e(  5 -  6) =    -69.52961  eV     2   --> B_2  D_4  S_4  
     e(  7 -  8) =    -69.52942  eV     2   --> A_1  D_1  S_1  
     e(  7 -  8) =    -69.52942  eV     2   --> A_2  D_2  S_2  
     e(  9 -  9) =     -8.38875  eV     1   --> A_1  D_1  S_1  
     e( 10 - 10) =     -8.00554  eV     1   --> B_1  D_3  S_3  
     e( 11 - 11) =      3.18131  eV     1   --> A_1  D_1  S_1  
     e( 12 - 12) =      3.23049  eV     1   --> B_1  D_3  S_3  
     e( 13 - 13) =      3.30295  eV     1   --> B_2  D_4  S_4  
     e( 14 - 14) =      3.30368  eV     1   --> B_1  D_3  S_3  
     e( 15 - 15) =      3.39328  eV     1   --> A_2  D_2  S_2  
     e( 16 - 16) =      3.39383  eV     1   --> A_1  D_1  S_1  
     e( 17 - 17) =      4.40294  eV     1   --> B_2  D_4  S_4  
     e( 18 - 18) =      4.40305  eV     1   --> B_1  D_3  S_3  
     e( 19 - 19) =      4.51557  eV     1   --> A_1  D_1  S_1  
     e( 20 - 20) =      4.51570  eV     1   --> A_2  D_2  S_2  
     e( 21 - 21) =      6.04655  eV     1   --> B_1  D_3  S_3  
     e( 22 - 22) =      7.76485  eV     1   --> A_1  D_1  S_1  
     e( 23 - 23) =      8.74269  eV     1   --> A_2  D_2  S_2  
     e( 24 - 24) =      8.74364  eV     1   --> A_1  D_1  S_1  
     e( 25 - 25) =      9.12450  eV     1   --> B_2  D_4  S_4  
     e( 26 - 26) =      9.12489  eV     1   --> B_1  D_3  S_3  
     e( 27 - 27) =     11.66536  eV     1   --> A_1  D_1  S_1  
     e( 28 - 28) =     13.51608  eV     1   --> B_1  D_3  S_3  
     e( 29 - 29) =     18.20904  eV     1   --> B_1  D_3  S_3  
     e( 30 - 30) =     20.63108  eV     1   --> A_1  D_1  S_1  
     e( 31 - 31) =     22.08526  eV     1   --> B_1  D_3  S_3  
     e( 32 - 32) =     22.08703  eV     1   --> B_2  D_4  S_4  
     e( 33 - 33) =     22.66532  eV     1   --> A_1  D_1  S_1  
     e( 34 - 34) =     22.66808  eV     1   --> A_2  D_2  S_2  
     e( 35 - 35) =     26.56629  eV     1   --> A_1  D_1  S_1  
     e( 36 - 36) =     28.14274  eV     1   --> B_1  D_3  S_3  

 **************************************************************************

 **************************************************************************

                    xk=(   0.00000,   0.00000,  -0.26009  )

     Band symmetry, C_2v (mm2)  point group:

     e(  1 -  2) =   -115.91959  eV     2   --> A_1  D_1  S_1  
     e(  1 -  2) =   -115.91959  eV     2   --> B_1  D_3  S_3  
     e(  3 -  3) =    -69.63296  eV     1   --> B_1  D_3  S_3  
     e(  4 -  4) =    -69.58821  eV     1   --> A_1  D_1  S_1  
     e(  5 -  6) =    -69.54841  eV     2   --> A_1  D_1  S_1  
     e(  5 -  6) =    -69.54841  eV     2   --> A_2  D_2  S_2  
     e(  7 -  8) =    -69.53268  eV     2   --> B_1  D_3  S_3  
     e(  7 -  8) =    -69.53268  eV     2   --> B_2  D_4  S_4  
     e(  9 -  9) =     -8.29857  eV     1   --> A_1  D_1  S_1  
     e( 10 - 10) =     -8.10141  eV     1   --> B_1  D_3  S_3  
     e( 11 - 11) =      3.10290  eV     1   --> B_1  D_3  S_3  
     e( 12 - 12) =      3.14413  eV     1   --> A_1  D_1  S_1  
     e( 13 - 13) =      3.30804  eV     1   --> B_2  D_4  S_4  
     e( 14 - 14) =      3.30872  eV     1   --> B_1  D_3  S_3  
     e( 15 - 15) =      3.35915  eV     1   --> A_2  D_2  S_2  
     e( 16 - 16) =      3.35977  eV     1   --> A_1  D_1  S_1  
     e( 17 - 18) =      4.41190  eV     2   --> B_1  D_3  S_3  
     e( 17 - 18) =      4.41190  eV     2   --> B_2  D_4  S_4  
     e( 19 - 19) =      4.41567  eV     1   --> A_1  D_1  S_1  
     e( 20 - 20) =      4.41578  eV     1   --> A_2  D_2  S_2  
     e( 21 - 21) =      6.43565  eV     1   --> B_1  D_3  S_3  
     e( 22 - 22) =      7.34519  eV     1   --> A_1  D_1  S_1  
     e( 23 - 23) =      8.82504  eV     1   --> A_2  D_2  S_2  
     e( 24 - 24) =      8.82588  eV     1   --> A_1  D_1  S_1  
     e( 25 - 25) =      9.02585  eV     1   --> B_2  D_4  S_4  
     e( 26 - 26) =      9.02639  eV     1   --> B_1  D_3  S_3  
     e( 27 - 27) =     12.17303  eV     1   --> A_1  D_1  S_1  
     e( 28 - 28) =     13.10504  eV     1   --> B_1  D_3  S_3  
     e( 29 - 29) =     18.63898  eV     1   --> B_1  D_3  S_3  
     e( 30 - 30) =     19.87237  eV     1   --> A_1  D_1  S_1  
     e( 31 - 31) =     22.16753  eV     1   --> B_1  D_3  S_3  
     e( 32 - 32) =     22.16954  eV     1   --> B_2  D_4  S_4  
     e( 33 - 33) =     22.45832  eV     1   --> A_1  D_1  S_1  
     e( 34 - 34) =     22.46083  eV     1   --> A_2  D_2  S_2  
     e( 35 - 35) =     26.91309  eV     1   --> A_1  D_1  S_1  
     e( 36 - 36) =     27.71102  eV     1   --> B_1  D_3  S_3  

 **************************************************************************

 **************************************************************************

                    xk=(   0.00000,   0.00000,  -0.31210  )

     Band symmetry, C_2v (mm2)  point group:

     e(  1 -  2) =   -115.91956  eV     2   --> A_1  D_1  S_1  
     e(  1 -  2) =   -115.91956  eV     2   --> B_1  D_3  S_3  
     e(  3 -  4) =    -69.60378  eV     2   --> A_1  D_1  S_1  
     e(  3 -  4) =    -69.60378  eV     2   --> B_1  D_3  S_3  
     e(  5 -  8) =    -69.53477  eV     4   --> A_1  D_1  S_1  
     e(  5 -  8) =    -69.53477  eV     4   --> A_2  D_2  S_2  
     e(  5 -  8) =    -69.53477  eV     4   --> B_1  D_3  S_3  
     e(  5 -  8) =    -69.53477  eV     4   --> B_2  D_4  S_4  
     e(  9 - 10) =     -8.20031  eV     2   --> A_1  D_1  S_1  
     e(  9 - 10) =     -8.20031  eV     2   --> B_1  D_3  S_3  
     e( 11 - 12) =      3.10762  eV     2   --> A_1  D_1  S_1  
     e( 11 - 12) =      3.10762  eV     2   --> B_1  D_3  S_3  
     e( 13 - 14) =      3.34160  eV     2   --> A_2  D_2  S_2  
     e( 13 - 14) =      3.34160  eV     2   --> B_2  D_4  S_4  
     e( 15 - 16) =      3.34228  eV     2   --> A_1  D_1  S_1  
     e( 15 - 16) =      3.34228  eV     2   --> B_1  D_3  S_3  
     e( 17 - 20) =      4.42536  eV     4   --> A_1  D_1  S_1  
     e( 17 - 20) =      4.42536  eV     4   --> A_2  D_2  S_2  
     e( 17 - 20) =      4.42536  eV     4   --> B_1  D_3  S_3  
     e( 17 - 20) =      4.42536  eV     4   --> B_2  D_4  S_4  
     e( 21 - 22) =      6.91784  eV     2   --> A_1  D_1  S_1  
     e( 21 - 22) =      6.91784  eV     2   --> B_1  D_3  S_3  
     e( 23 - 24) =      8.92494  eV     2   --> A_2  D_2  S_2  
     e( 23 - 24) =      8.92494  eV     2   --> B_2  D_4  S_4  
     e( 25 - 26) =      8.92563  eV     2   --> A_1  D_1  S_1  
     e( 25 - 26) =      8.92563  eV     2   --> B_1  D_3  S_3  
     e( 27 - 28) =     12.66250  eV     2   --> A_1  D_1  S_1  
     e( 27 - 28) =     12.66250  eV     2   --> B_1  D_3  S_3  
     e( 29 - 30) =     19.19612  eV     2   --> A_1  D_1  S_1  
     e( 29 - 30) =     19.19612  eV     2   --> B_1  D_3  S_3  
     e( 31 - 32) =     22.29630  eV     2   --> A_1  D_1  S_1  
     e( 31 - 32) =     22.29630  eV     2   --> B_1  D_3  S_3  
     e( 33 - 34) =     22.29856  eV     2   --> A_2  D_2  S_2  
     e( 33 - 34) =     22.29856  eV     2   --> B_2  D_4  S_4  
     e( 35 - 36) =     27.29951  eV     2   --> A_1  D_1  S_1  
     e( 35 - 36) =     27.29951  eV     2   --> B_1  D_3  S_3  

 **************************************************************************

 **************************************************************************

                    xk=(  -0.05128,   0.00000,  -0.31210  )

     point group C_s (m)    
     there are  2 classes
     the character table:

       E     s    
A'     1.00  1.00
A''    1.00 -1.00

     the symmetry operations in each class and the name of the first element:

     E        1
                                                                 
     s        2
                                                                 

     Band symmetry, C_s (m)     point group:

     e(  1 -  2) =   -115.91958  eV     2   --> A'             
     e(  1 -  2) =   -115.91958  eV     2   --> A''            
     e(  3 -  4) =    -69.60235  eV     2   --> A'             
     e(  3 -  4) =    -69.60235  eV     2   --> A''            
     e(  5 -  6) =    -69.54484  eV     2   --> A'             
     e(  5 -  6) =    -69.54484  eV     2   --> A''            
[...]
     e( 11 - 12) =      3.30999  eV     2   --> A'             
     e( 11 - 12) =      3.30999  eV     2   --> A''            
     e( 13 - 14) =      3.50196  eV     2   --> A'             
     e( 13 - 14) =      3.50196  eV     2   --> A''            
     e( 15 - 16) =      3.98341  eV     2   --> A'             
     e( 15 - 16) =      3.98341  eV     2   --> A''            
     e( 17 - 18) =      4.36679  eV     2   --> A'             
     e( 17 - 18) =      4.36679  eV     2   --> A''            
     e( 19 - 20) =      4.90038  eV     2   --> A'             
     e( 19 - 20) =      4.90038  eV     2   --> A''            
     e( 21 - 22) =      5.33438  eV     2   --> A'             
     e( 21 - 22) =      5.33438  eV     2   --> A''            
     e( 23 - 24) =      6.46502  eV     2   --> A'             
     e( 23 - 24) =      6.46502  eV     2   --> A''            
     e( 25 - 26) =      8.05277  eV     2   --> A'             
     e( 25 - 26) =      8.05277  eV     2   --> A''            
     e( 27 - 28) =     17.11804  eV     2   --> A'             
     e( 27 - 28) =     17.11804  eV     2   --> A''            
     e( 29 - 30) =     17.28300  eV     2   --> A'             
     e( 29 - 30) =     17.28300  eV     2   --> A''            
     e( 31 - 32) =     17.98231  eV     2   --> A'             
     e( 31 - 32) =     17.98231  eV     2   --> A''            
     e( 33 - 34) =     24.92186  eV     2   --> A'             
     e( 33 - 34) =     24.92186  eV     2   --> A''            
     e( 35 - 36) =     25.08739  eV     2   --> A'             
     e( 35 - 36) =     25.08739  eV     2   --> A''            

 **************************************************************************

 **************************************************************************

                    xk=(  -0.66667,   0.00000,  -0.26752  )

     Band symmetry, C_s (m)     point group:

     e(  1 -  2) =   -115.91944  eV     2   --> A'             
     e(  1 -  2) =   -115.91944  eV     2   --> A''            
     e(  3 -  4) =    -69.57147  eV     2   --> A'             
     e(  3 -  4) =    -69.57147  eV     2   --> A''            
     e(  5 -  5) =    -69.56476  eV     1   --> A''            
     e(  6 -  7) =    -69.55637  eV     2   --> A'             
     e(  6 -  7) =    -69.55637  eV     2   --> A''            
     e(  8 -  8) =    -69.55209  eV     1   --> A'             
     e(  9 - 10) =     -7.66698  eV     2   --> A'             
     e(  9 - 10) =     -7.66698  eV     2   --> A''            
     e( 11 - 12) =      3.32115  eV     2   --> A'             
     e( 11 - 12) =      3.32115  eV     2   --> A''            
     e( 13 - 13) =      3.42509  eV     1   --> A''            
     e( 14 - 14) =      3.58598  eV     1   --> A'             
     e( 15 - 16) =      4.00195  eV     2   --> A'             
     e( 15 - 16) =      4.00195  eV     2   --> A''            
     e( 17 - 17) =      4.34374  eV     1   --> A'             
     e( 18 - 18) =      4.36035  eV     1   --> A''            
     e( 19 - 20) =      4.88478  eV     2   --> A'             
     e( 19 - 20) =      4.88478  eV     2   --> A''            
     e( 21 - 22) =      5.34863  eV     2   --> A'             
     e( 21 - 22) =      5.34863  eV     2   --> A''            
     e( 23 - 23) =      6.24934  eV     1   --> A'             
     e( 24 - 24) =      6.69694  eV     1   --> A''            
     e( 25 - 25) =      8.01648  eV     1   --> A'             
     e( 26 - 26) =      8.01672  eV     1   --> A''            
     e( 27 - 27) =     17.08179  eV     1   --> A'             
     e( 28 - 28) =     17.08233  eV     1   --> A''            
     e( 29 - 29) =     17.23014  eV     1   --> A''            
     e( 30 - 30) =     17.32061  eV     1   --> A'             
     e( 31 - 31) =     18.08118  eV     1   --> A''            
     e( 32 - 32) =     18.08202  eV     1   --> A'             
     e( 33 - 33) =     24.23884  eV     1   --> A''            
     e( 34 - 34) =     24.98496  eV     1   --> A''            
     e( 35 - 35) =     24.98529  eV     1   --> A'             
     e( 36 - 36) =     25.68235  eV     1   --> A'             

 **************************************************************************

 **************************************************************************

                    xk=(  -0.66667,   0.00000,  -0.22293  )

     Band symmetry, C_s (m)     point group:

     e(  1 -  2) =   -115.91943  eV     2   --> A'             
     e(  1 -  2) =   -115.91943  eV     2   --> A''            
     e(  3 -  4) =    -69.57487  eV     2   --> A'             
     e(  3 -  4) =    -69.57487  eV     2   --> A''            
     e(  5 -  5) =    -69.56386  eV     1   --> A''            
     e(  6 -  7) =    -69.55413  eV     2   --> A'             
     e(  6 -  7) =    -69.55413  eV     2   --> A''            
     e(  8 -  8) =    -69.54651  eV     1   --> A'             
     e(  9 - 10) =     -7.66853  eV     2   --> A'             
     e(  9 - 10) =     -7.66853  eV     2   --> A''            
     e( 11 - 12) =      3.36365  eV     2   --> A'             
     e( 11 - 12) =      3.36365  eV     2   --> A''            
     e( 13 - 13) =      3.36807  eV     1   --> A''            
     e( 14 - 14) =      3.69151  eV     1   --> A'             
     e( 15 - 16) =      4.00203  eV     2   --> A'             
     e( 15 - 16) =      4.00203  eV     2   --> A''            
     e( 17 - 17) =      4.33413  eV     1   --> A'             
     e( 18 - 18) =      4.37753  eV     1   --> A''            
     e( 19 - 20) =      4.85872  eV     2   --> A'             
     e( 19 - 20) =      4.85872  eV     2   --> A''            
     e( 21 - 21) =      5.36754  eV     1   --> A'             
     e( 22 - 22) =      5.36774  eV     1   --> A''            
     e( 23 - 23) =      6.04460  eV     1   --> A'             
     e( 24 - 24) =      6.89790  eV     1   --> A''            
     e( 25 - 25) =      7.91506  eV     1   --> A'             
     e( 26 - 26) =      7.91550  eV     1   --> A''            
     e( 27 - 27) =     17.00685  eV     1   --> A'             
     e( 28 - 28) =     17.00758  eV     1   --> A''            
     e( 29 - 29) =     17.17720  eV     1   --> A''            
     e( 30 - 30) =     17.35692  eV     1   --> A'             
     e( 31 - 31) =     18.34437  eV     1   --> A''            
     e( 32 - 32) =     18.34568  eV     1   --> A'             
     e( 33 - 33) =     23.65330  eV     1   --> A''            
     e( 34 - 34) =     24.69939  eV     1   --> A''            
     e( 35 - 35) =     24.70002  eV     1   --> A'             
     e( 36 - 36) =     26.51759  eV     1   --> A'             

 **************************************************************************

 **************************************************************************

                    xk=(  -0.66667,   0.00000,  -0.17834  )

     Band symmetry, C_s (m)     point group:

     e(  1 -  2) =   -115.91944  eV     2   --> A'             
     e(  1 -  2) =   -115.91944  eV     2   --> A''            
     e(  3 -  3) =    -69.57975  eV     1   --> A''            
     e(  4 -  5) =    -69.57337  eV     2   --> A'             
     e(  4 -  5) =    -69.57337  eV     2   --> A''            
     e(  6 -  7) =    -69.55341  eV     2   --> A'             
     e(  6 -  7) =    -69.55341  eV     2   --> A''            
     e(  8 -  8) =    -69.54953  eV     1   --> A'             
     e(  9 -  9) =     -7.67103  eV     1   --> A''            
     e( 10 - 10) =     -7.67089  eV     1   --> A'             
     e( 11 - 11) =      3.30159  eV     1   --> A''            
     e( 12 - 13) =      3.42773  eV     2   --> A'             
     e( 12 - 13) =      3.42773  eV     2   --> A''            
     e( 14 - 14) =      3.80233  eV     1   --> A'             
     e( 15 - 16) =      4.04919  eV     2   --> A'             
     e( 15 - 16) =      4.04919  eV     2   --> A''            
     e( 17 - 17) =      4.32604  eV     1   --> A'             
     e( 18 - 18) =      4.34409  eV     1   --> A''            
     e( 19 - 20) =      4.79628  eV     2   --> A'             
     e( 19 - 20) =      4.79628  eV     2   --> A''            
     e( 21 - 21) =      5.38538  eV     1   --> A'             
     e( 22 - 22) =      5.38561  eV     1   --> A''            
     e( 23 - 23) =      5.82807  eV     1   --> A'             
     e( 24 - 24) =      7.06878  eV     1   --> A''            
     e( 25 - 25) =      7.78827  eV     1   --> A'             
     e( 26 - 26) =      7.78894  eV     1   --> A''            
     e( 27 - 27) =     16.93714  eV     1   --> A'             
     e( 28 - 28) =     16.93785  eV     1   --> A''            
     e( 29 - 29) =     17.11360  eV     1   --> A''            
     e( 30 - 30) =     17.38468  eV     1   --> A'             
     e( 31 - 31) =     18.70450  eV     1   --> A''            
     e( 32 - 32) =     18.70604  eV     1   --> A'             
     e( 33 - 33) =     23.15570  eV     1   --> A''            
     e( 34 - 34) =     24.28685  eV     1   --> A''            
     e( 35 - 35) =     24.28776  eV     1   --> A'             
     e( 36 - 36) =     27.40944  eV     1   --> A'             

 **************************************************************************

 **************************************************************************

                    xk=(  -0.66667,   0.00000,  -0.13376  )

     Band symmetry, C_s (m)     point group:

     e(  1 -  2) =   -115.91950  eV     2   --> A'             
     e(  1 -  2) =   -115.91950  eV     2   --> A''            
     e(  3 -  3) =    -69.60228  eV     1   --> A''            
     e(  4 -  5) =    -69.58987  eV     2   --> A'             
     e(  4 -  5) =    -69.58987  eV     2   --> A''            
     e(  6 -  7) =    -69.57395  eV     2   --> A'             
     e(  6 -  7) =    -69.57395  eV     2   --> A''            
     e(  8 -  8) =    -69.56996  eV     1   --> A'             
     e(  9 -  9) =     -7.67433  eV     1   --> A''            
     e( 10 - 10) =     -7.67416  eV     1   --> A'             
     e( 11 - 11) =      3.23164  eV     1   --> A''            
     e( 12 - 12) =      3.47968  eV     1   --> A''            
     e( 13 - 13) =      3.47982  eV     1   --> A'             
     e( 14 - 14) =      3.85949  eV     1   --> A'             
     e( 15 - 16) =      4.07183  eV     2   --> A'             
     e( 15 - 16) =      4.07183  eV     2   --> A''            
     e( 17 - 17) =      4.28841  eV     1   --> A''            
     e( 18 - 18) =      4.30309  eV     1   --> A'             
     e( 19 - 20) =      4.67823  eV     2   --> A'             
     e( 19 - 20) =      4.67823  eV     2   --> A''            
     e( 21 - 21) =      5.41387  eV     1   --> A'             
     e( 22 - 22) =      5.41411  eV     1   --> A''            
     e( 23 - 23) =      5.62212  eV     1   --> A'             
     e( 24 - 24) =      7.21449  eV     1   --> A''            
     e( 25 - 25) =      7.61208  eV     1   --> A'             
     e( 26 - 26) =      7.61295  eV     1   --> A''            
     e( 27 - 27) =     16.87816  eV     1   --> A'             
     e( 28 - 28) =     16.87879  eV     1   --> A''            
     e( 29 - 29) =     17.04664  eV     1   --> A''            
     e( 30 - 30) =     17.39521  eV     1   --> A'             
     e( 31 - 31) =     19.10725  eV     1   --> A''            
     e( 32 - 32) =     19.10889  eV     1   --> A'             
     e( 33 - 33) =     22.75335  eV     1   --> A''            
     e( 34 - 34) =     23.82317  eV     1   --> A''            
     e( 35 - 35) =     23.82433  eV     1   --> A'             
     e( 36 - 36) =     28.32329  eV     1   --> A'             

 **************************************************************************

 **************************************************************************

                    xk=(  -0.66667,   0.00000,  -0.08917  )

     Band symmetry, C_s (m)     point group:

     e(  1 -  2) =   -115.91952  eV     2   --> A'             
     e(  1 -  2) =   -115.91952  eV     2   --> A''            
     e(  3 -  3) =    -69.60234  eV     1   --> A''            
     e(  4 -  5) =    -69.59691  eV     2   --> A'             
     e(  4 -  5) =    -69.59691  eV     2   --> A''            
     e(  6 -  7) =    -69.58447  eV     2   --> A'             
     e(  6 -  7) =    -69.58447  eV     2   --> A''            
     e(  8 -  8) =    -69.57286  eV     1   --> A'             
     e(  9 -  9) =     -7.67690  eV     1   --> A''            
     e( 10 - 10) =     -7.67671  eV     1   --> A'             
     e( 11 - 11) =      3.20261  eV     1   --> A''            
     e( 12 - 12) =      3.53026  eV     1   --> A''            
     e( 13 - 13) =      3.53046  eV     1   --> A'             
     e( 14 - 14) =      3.93464  eV     1   --> A'             
     e( 15 - 16) =      4.10474  eV     2   --> A'             
     e( 15 - 16) =      4.10474  eV     2   --> A''            
     e( 17 - 17) =      4.28408  eV     1   --> A'             
     e( 18 - 18) =      4.30343  eV     1   --> A''            
     e( 19 - 20) =      4.60259  eV     2   --> A'             
     e( 19 - 20) =      4.60259  eV     2   --> A''            
     e( 21 - 21) =      5.45143  eV     1   --> A'             
     e( 22 - 22) =      5.45168  eV     1   --> A''            
     e( 23 - 23) =      5.45464  eV     1   --> A'             
     e( 24 - 24) =      7.33491  eV     1   --> A''            
     e( 25 - 25) =      7.44518  eV     1   --> A'             
     e( 26 - 26) =      7.44620  eV     1   --> A''            
     e( 27 - 27) =     16.83978  eV     1   --> A'             
     e( 28 - 28) =     16.84034  eV     1   --> A''            
     e( 29 - 29) =     17.00116  eV     1   --> A''            
     e( 30 - 30) =     17.39753  eV     1   --> A'             
     e( 31 - 31) =     19.51394  eV     1   --> A''            
     e( 32 - 32) =     19.51561  eV     1   --> A'             
     e( 33 - 33) =     22.47934  eV     1   --> A''            
     e( 34 - 34) =     23.37587  eV     1   --> A''            
     e( 35 - 35) =     23.37723  eV     1   --> A'             
     e( 36 - 36) =     29.22755  eV     1   --> A'             

 **************************************************************************

 **************************************************************************

                    xk=(  -0.66667,   0.00000,  -0.04459  )

     Band symmetry, C_s (m)     point group:

     e(  1 -  2) =   -115.91949  eV     2   --> A'             
     e(  1 -  2) =   -115.91949  eV     2   --> A''            
     e(  3 -  3) =    -69.59213  eV     1   --> A''            
     e(  4 -  5) =    -69.58823  eV     2   --> A'             
     e(  4 -  5) =    -69.58823  eV     2   --> A''            
     e(  6 -  7) =    -69.57684  eV     2   --> A'             
     e(  6 -  7) =    -69.57684  eV     2   --> A''            
     e(  8 -  8) =    -69.57296  eV     1   --> A'             
     e(  9 -  9) =     -7.67837  eV     1   --> A''            
     e( 10 - 10) =     -7.67816  eV     1   --> A'             
     e( 11 - 11) =      3.19895  eV     1   --> A''            
     e( 12 - 12) =      3.58516  eV     1   --> A''            
     e( 13 - 13) =      3.58536  eV     1   --> A'             
     e( 14 - 14) =      3.99522  eV     1   --> A'             
     e( 15 - 16) =      4.18029  eV     2   --> A'             
     e( 15 - 16) =      4.18029  eV     2   --> A''            
     e( 17 - 17) =      4.27504  eV     1   --> A'             
     e( 18 - 18) =      4.32927  eV     1   --> A''            
     e( 19 - 19) =      4.53851  eV     1   --> A'             
     e( 20 - 20) =      4.53862  eV     1   --> A''            
     e( 21 - 21) =      5.35771  eV     1   --> A'             
     e( 22 - 22) =      5.48989  eV     1   --> A'             
     e( 23 - 23) =      5.49016  eV     1   --> A''            
     e( 24 - 24) =      7.35037  eV     1   --> A'             
     e( 25 - 25) =      7.35149  eV     1   --> A''            
     e( 26 - 26) =      7.41365  eV     1   --> A''            
     e( 27 - 27) =     16.82169  eV     1   --> A'             
     e( 28 - 28) =     16.82221  eV     1   --> A''            
     e( 29 - 29) =     16.97465  eV     1   --> A''            
     e( 30 - 30) =     17.40363  eV     1   --> A'             
     e( 31 - 31) =     19.84656  eV     1   --> A''            
     e( 32 - 32) =     19.84822  eV     1   --> A'             
     e( 33 - 33) =     22.31757  eV     1   --> A''            
     e( 34 - 34) =     23.02880  eV     1   --> A''            
     e( 35 - 35) =     23.03030  eV     1   --> A'             
     e( 36 - 36) =     30.01945  eV     1   --> A'             

 **************************************************************************

 **************************************************************************

                    xk=(  -0.66667,   0.00000,   0.00000  )

     Band symmetry, C_s (m)     point group:

     e(  1 -  2) =   -115.91947  eV     2   --> A'             
     e(  1 -  2) =   -115.91947  eV     2   --> A''            
     e(  3 -  3) =    -69.58337  eV     1   --> A''            
     e(  4 -  5) =    -69.58181  eV     2   --> A'             
     e(  4 -  5) =    -69.58181  eV     2   --> A''            
     e(  6 -  7) =    -69.57187  eV     2   --> A'             
     e(  6 -  7) =    -69.57187  eV     2   --> A''            
     e(  8 -  8) =    -69.56030  eV     1   --> A'             
     e(  9 -  9) =     -7.67864  eV     1   --> A''            
     e( 10 - 10) =     -7.67843  eV     1   --> A'             
     e( 11 - 11) =      3.23152  eV     1   --> A''            
     e( 12 - 12) =      3.59774  eV     1   --> A''            
     e( 13 - 13) =      3.59797  eV     1   --> A'             
     e( 14 - 14) =      4.03161  eV     1   --> A'             
     e( 15 - 16) =      4.23133  eV     2   --> A'             
     e( 15 - 16) =      4.23133  eV     2   --> A''            
     e( 17 - 17) =      4.27633  eV     1   --> A'             
     e( 18 - 18) =      4.35705  eV     1   --> A''            
     e( 19 - 19) =      4.50004  eV     1   --> A'             
     e( 20 - 20) =      4.50024  eV     1   --> A''            
     e( 21 - 21) =      5.35135  eV     1   --> A'             
     e( 22 - 22) =      5.50820  eV     1   --> A'             
     e( 23 - 23) =      5.50851  eV     1   --> A''            
     e( 24 - 24) =      7.30517  eV     1   --> A'             
     e( 25 - 25) =      7.30633  eV     1   --> A''            
     e( 26 - 26) =      7.43964  eV     1   --> A''            
     e( 27 - 27) =     16.81783  eV     1   --> A'             
     e( 28 - 28) =     16.81833  eV     1   --> A''            
     e( 29 - 29) =     16.96891  eV     1   --> A''            
     e( 30 - 30) =     17.41482  eV     1   --> A'             
     e( 31 - 31) =     19.98591  eV     1   --> A''            
     e( 32 - 32) =     19.98756  eV     1   --> A'             
     e( 33 - 33) =     22.27174  eV     1   --> A''            
     e( 34 - 34) =     22.88911  eV     1   --> A''            
     e( 35 - 35) =     22.89067  eV     1   --> A'             
     e( 36 - 36) =     30.41814  eV     1   --> A'             

 **************************************************************************
 
     BANDS        :      3.40s CPU      4.84s WALL

 
   This run was terminated on:  16:39:21  17Oct2022            

=------------------------------------------------------------------------------=
   JOB DONE.
=------------------------------------------------------------------------------=
