
     Program PWSCF v.7.1 starts on 17Oct2022 at 16:38:57 

     This program is part of the open-source Quantum ESPRESSO suite
     for quantum simulation of materials; please cite
         "P. Giannozzi et al., J. Phys.:Condens. Matter 21 395502 (2009);
         "P. Giannozzi et al., J. Phys.:Condens. Matter 29 465901 (2017);
         "P. Giannozzi et al., J. Chem. Phys. 152 154105 (2020);
          URL http://www.quantum-espresso.org", 
     in publications or presentations arising from this work. More details at
     http://www.quantum-espresso.org/quote

     Parallel version (MPI), running on     1 processors

     MPI processes distributed on     1 nodes
     499 MiB available memory on the printing compute node when the environment starts
 
     Reading input from bands.pwi
Warning: card &IONS ignored
Warning: card / ignored
Warning: card &CELL ignored
Warning: card / ignored

     Current dimensions of program PWSCF are:
     Max number of different atomic species (ntypx) = 10
     Max number of k-points (npk) =  40000
     Max angular momentum in pseudopotentials (lmaxx) =  4

     Atomic positions and unit cell read from directory:
     ./out/kc.save/
     Atomic positions from file used, from input discarded
 
     Message from routine setup:
     using ibrav=0 with symmetry is DISCOURAGED, use correct ibrav instead
 
     Subspace diagonalization in iterative solution of the eigenvalue problem:
     a serial algorithm will be used

 
     G-vector sticks info
     --------------------
     sticks:   dense  smooth     PW     G-vecs:    dense   smooth      PW
     Sum         511     511    163                15291    15291    2623
 
     Using Slab Decomposition
 


     bravais-lattice index     =            0
     lattice parameter (alat)  =       6.1406  a.u.
     unit-cell volume          =     321.2399 (a.u.)^3
     number of atoms/cell      =            4
     number of atomic types    =            2
     number of electrons       =        52.00
     number of Kohn-Sham states=           36
     kinetic-energy cutoff     =      50.0000  Ry
     charge density cutoff     =     200.0000  Ry
     Exchange-correlation= SLA  PW   NOGX NOGC
                           (   1   4   0   0   0   0   0)

     celldm(1)=   6.140571  celldm(2)=   0.000000  celldm(3)=   0.000000
     celldm(4)=   0.000000  celldm(5)=   0.000000  celldm(6)=   0.000000

     crystal axes: (cart. coord. in units of alat)
               a(1) = (  -0.500000  -0.866025   0.000000 )  
               a(2) = (  -0.500000   0.866025   0.000000 )  
               a(3) = (   0.000000   0.000000  -1.602037 )  

     reciprocal axes: (cart. coord. in units 2 pi/alat)
               b(1) = ( -1.000000 -0.577350  0.000000 )  
               b(2) = ( -1.000000  0.577350  0.000000 )  
               b(3) = (  0.000000  0.000000 -0.624205 )  


     PseudoPot. # 1 for Zn read from file:
     ../../../files/pseudo/Zn.upf
     MD5 check sum: 492e12d15cacde48a98384ec5dd6fb31
     Pseudo is Norm-conserving + core correction, Zval = 20.0
     Generated using ONCVPSP code by D. R. Hamann
     Using radial grid of 1296 points,  6 beta functions with: 
                l(1) =   0
                l(2) =   0
                l(3) =   1
                l(4) =   1
                l(5) =   2
                l(6) =   2

     PseudoPot. # 2 for O  read from file:
     ../../../files/pseudo/O.upf
     MD5 check sum: 86ed389b6a5065e60c3f64c68a612de9
     Pseudo is Norm-conserving + core correction, Zval =  6.0
     Generated using ONCVPSP code by D. R. Hamann
     Using radial grid of  926 points,  5 beta functions with: 
                l(1) =   0
                l(2) =   0
                l(3) =   1
                l(4) =   1
                l(5) =   2

     atomic species   valence    mass     pseudopotential
        Zn            20.00    65.38000     Zn( 1.00)
        O              6.00    15.99900     O ( 1.00)

      4 Sym. Ops. (no inversion) found ( 2 have fractional translation)


                                    s                        frac. trans.

      isym =  1     identity                                     

 cryst.   s( 1) = (     1          0          0      )
                  (     0          1          0      )
                  (     0          0          1      )

 cart.    s( 1) = (  1.0000000  0.0000000  0.0000000 )
                  (  0.0000000  1.0000000  0.0000000 )
                  (  0.0000000  0.0000000  1.0000000 )


      isym =  2     180 deg rotation - cart. axis [0,0,1]        

 cryst.   s( 2) = (    -1          0          0      )    f =(  0.0000000 )
                  (     0         -1          0      )       (  0.0000000 )
                  (     0          0          1      )       (  0.5000000 )

 cart.    s( 2) = ( -1.0000000  0.0000000  0.0000000 )    f =( -0.0000000 )
                  (  0.0000000 -1.0000000  0.0000000 )       (  0.0000000 )
                  (  0.0000000  0.0000000  1.0000000 )       ( -0.8010186 )


      isym =  3     inv. 180 deg rotation - cart. axis [0,1,0]   

 cryst.   s( 3) = (     0          1          0      )    f =(  0.0000000 )
                  (     1          0          0      )       (  0.0000000 )
                  (     0          0          1      )       (  0.5000000 )

 cart.    s( 3) = (  1.0000000  0.0000000  0.0000000 )    f =(  0.0000000 )
                  (  0.0000000 -1.0000000  0.0000000 )       (  0.0000000 )
                  (  0.0000000  0.0000000  1.0000000 )       ( -0.8010186 )


      isym =  4     inv. 180 deg rotation - cart. axis [1,0,0]   

 cryst.   s( 4) = (     0         -1          0      )
                  (    -1          0          0      )
                  (     0          0          1      )

 cart.    s( 4) = ( -1.0000000  0.0000000  0.0000000 )
                  (  0.0000000  1.0000000  0.0000000 )
                  (  0.0000000  0.0000000  1.0000000 )


   Cartesian axes

     site n.     atom                  positions (alat units)
         1           Zn  tau(   1) = (  -0.5000000   0.2887329  -0.8010186  )
         2           Zn  tau(   2) = (  -0.5000000  -0.2887329   0.0000000  )
         3           O   tau(   3) = (  -0.5000000   0.2887329  -0.1878389  )
         4           O   tau(   4) = (  -0.5000000  -0.2887329  -0.9888575  )

   Crystallographic axes

     site n.     atom                  positions (cryst. coord.)
         1           Zn  tau(   1) = (  0.3333000  0.6667000  0.5000000  )
         2           Zn  tau(   2) = (  0.6667000  0.3333000  0.0000000  )
         3           O   tau(   3) = (  0.3333000  0.6667000  0.1172500  )
         4           O   tau(   4) = (  0.6667000  0.3333000  0.6172500  )

     number of k points=    53
                       cart. coord. in units 2pi/alat
        k(    1) = (   0.0000000   0.0000000  -0.3121026), wk =   0.0377358
        k(    2) = (  -0.0500000  -0.0288675  -0.3121026), wk =   0.0377358
        k(    3) = (  -0.1000000  -0.0577350  -0.3121026), wk =   0.0377358
        k(    4) = (  -0.1500000  -0.0866025  -0.3121026), wk =   0.0377358
        k(    5) = (  -0.2000000  -0.1154701  -0.3121026), wk =   0.0377358
        k(    6) = (  -0.2500000  -0.1443376  -0.3121026), wk =   0.0377358
        k(    7) = (  -0.3000000  -0.1732051  -0.3121026), wk =   0.0377358
        k(    8) = (  -0.3500000  -0.2020726  -0.3121026), wk =   0.0377358
        k(    9) = (  -0.4000000  -0.2309401  -0.3121026), wk =   0.0377358
        k(   10) = (  -0.4500000  -0.2598076  -0.3121026), wk =   0.0377358
        k(   11) = (  -0.5000000  -0.2886751  -0.3121026), wk =   0.0377358
        k(   12) = (  -0.5000000  -0.2886751  -0.2496821), wk =   0.0377358
        k(   13) = (  -0.5000000  -0.2886751  -0.1872616), wk =   0.0377358
        k(   14) = (  -0.5000000  -0.2886751  -0.1248410), wk =   0.0377358
        k(   15) = (  -0.5000000  -0.2886751  -0.0624205), wk =   0.0377358
        k(   16) = (  -0.5000000  -0.2886751   0.0000000), wk =   0.0377358
        k(   17) = (  -0.4545455  -0.2624319   0.0000000), wk =   0.0377358
        k(   18) = (  -0.4090909  -0.2361887   0.0000000), wk =   0.0377358
        k(   19) = (  -0.3636364  -0.2099456   0.0000000), wk =   0.0377358
        k(   20) = (  -0.3181818  -0.1837024   0.0000000), wk =   0.0377358
        k(   21) = (  -0.2727273  -0.1574592   0.0000000), wk =   0.0377358
        k(   22) = (  -0.2272727  -0.1312160   0.0000000), wk =   0.0377358
        k(   23) = (  -0.1818182  -0.1049728   0.0000000), wk =   0.0377358
        k(   24) = (  -0.1363636  -0.0787296   0.0000000), wk =   0.0377358
        k(   25) = (  -0.0909091  -0.0524864   0.0000000), wk =   0.0377358
        k(   26) = (  -0.0454545  -0.0262432   0.0000000), wk =   0.0377358
        k(   27) = (   0.0000000   0.0000000   0.0000000), wk =   0.0377358
        k(   28) = (   0.0000000   0.0000000  -0.0520171), wk =   0.0377358
        k(   29) = (   0.0000000   0.0000000  -0.1040342), wk =   0.0377358
        k(   30) = (   0.0000000   0.0000000  -0.1560513), wk =   0.0377358
        k(   31) = (   0.0000000   0.0000000  -0.2080684), wk =   0.0377358
        k(   32) = (   0.0000000   0.0000000  -0.2600855), wk =   0.0377358
        k(   33) = (   0.0000000   0.0000000  -0.3121026), wk =   0.0377358
        k(   34) = (  -0.0512821   0.0000000  -0.3121026), wk =   0.0377358
        k(   35) = (  -0.1025641   0.0000000  -0.3121026), wk =   0.0377358
        k(   36) = (  -0.1538462   0.0000000  -0.3121026), wk =   0.0377358
        k(   37) = (  -0.2051282   0.0000000  -0.3121026), wk =   0.0377358
        k(   38) = (  -0.2564103   0.0000000  -0.3121026), wk =   0.0377358
        k(   39) = (  -0.3076923   0.0000000  -0.3121026), wk =   0.0377358
        k(   40) = (  -0.3589744   0.0000000  -0.3121026), wk =   0.0377358
        k(   41) = (  -0.4102564   0.0000000  -0.3121026), wk =   0.0377358
        k(   42) = (  -0.4615385   0.0000000  -0.3121026), wk =   0.0377358
        k(   43) = (  -0.5128205   0.0000000  -0.3121026), wk =   0.0377358
        k(   44) = (  -0.5641026   0.0000000  -0.3121026), wk =   0.0377358
        k(   45) = (  -0.6153846   0.0000000  -0.3121026), wk =   0.0377358
        k(   46) = (  -0.6666667   0.0000000  -0.3121026), wk =   0.0377358
        k(   47) = (  -0.6666667   0.0000000  -0.2675165), wk =   0.0377358
        k(   48) = (  -0.6666667   0.0000000  -0.2229304), wk =   0.0377358
        k(   49) = (  -0.6666667   0.0000000  -0.1783443), wk =   0.0377358
        k(   50) = (  -0.6666667   0.0000000  -0.1337583), wk =   0.0377358
        k(   51) = (  -0.6666667   0.0000000  -0.0891722), wk =   0.0377358
        k(   52) = (  -0.6666667   0.0000000  -0.0445861), wk =   0.0377358
        k(   53) = (  -0.6666667   0.0000000   0.0000000), wk =   0.0377358

                       cryst. coord.
        k(    1) = (   0.0000000   0.0000000   0.5000000), wk =   0.0377358
        k(    2) = (   0.0500000   0.0000000   0.5000000), wk =   0.0377358
        k(    3) = (   0.1000000   0.0000000   0.5000000), wk =   0.0377358
        k(    4) = (   0.1500000   0.0000000   0.5000000), wk =   0.0377358
        k(    5) = (   0.2000000   0.0000000   0.5000000), wk =   0.0377358
        k(    6) = (   0.2500000   0.0000000   0.5000000), wk =   0.0377358
        k(    7) = (   0.3000000   0.0000000   0.5000000), wk =   0.0377358
        k(    8) = (   0.3500000   0.0000000   0.5000000), wk =   0.0377358
        k(    9) = (   0.4000000   0.0000000   0.5000000), wk =   0.0377358
        k(   10) = (   0.4500000   0.0000000   0.5000000), wk =   0.0377358
        k(   11) = (   0.5000000   0.0000000   0.5000000), wk =   0.0377358
        k(   12) = (   0.5000000   0.0000000   0.4000000), wk =   0.0377358
        k(   13) = (   0.5000000   0.0000000   0.3000000), wk =   0.0377358
        k(   14) = (   0.5000000   0.0000000   0.2000000), wk =   0.0377358
        k(   15) = (   0.5000000   0.0000000   0.1000000), wk =   0.0377358
        k(   16) = (   0.5000000   0.0000000   0.0000000), wk =   0.0377358
        k(   17) = (   0.4545455   0.0000000   0.0000000), wk =   0.0377358
        k(   18) = (   0.4090909  -0.0000000   0.0000000), wk =   0.0377358
        k(   19) = (   0.3636364   0.0000000   0.0000000), wk =   0.0377358
        k(   20) = (   0.3181818   0.0000000   0.0000000), wk =   0.0377358
        k(   21) = (   0.2727273   0.0000000   0.0000000), wk =   0.0377358
        k(   22) = (   0.2272727  -0.0000000   0.0000000), wk =   0.0377358
        k(   23) = (   0.1818182   0.0000000   0.0000000), wk =   0.0377358
        k(   24) = (   0.1363636   0.0000000   0.0000000), wk =   0.0377358
        k(   25) = (   0.0909091   0.0000000   0.0000000), wk =   0.0377358
        k(   26) = (   0.0454545   0.0000000   0.0000000), wk =   0.0377358
        k(   27) = (   0.0000000   0.0000000   0.0000000), wk =   0.0377358
        k(   28) = (   0.0000000   0.0000000   0.0833333), wk =   0.0377358
        k(   29) = (   0.0000000   0.0000000   0.1666667), wk =   0.0377358
        k(   30) = (   0.0000000   0.0000000   0.2500000), wk =   0.0377358
        k(   31) = (   0.0000000   0.0000000   0.3333333), wk =   0.0377358
        k(   32) = (   0.0000000   0.0000000   0.4166667), wk =   0.0377358
        k(   33) = (   0.0000000   0.0000000   0.5000000), wk =   0.0377358
        k(   34) = (   0.0256410   0.0256410   0.5000000), wk =   0.0377358
        k(   35) = (   0.0512821   0.0512821   0.5000000), wk =   0.0377358
        k(   36) = (   0.0769231   0.0769231   0.5000000), wk =   0.0377358
        k(   37) = (   0.1025641   0.1025641   0.5000000), wk =   0.0377358
        k(   38) = (   0.1282051   0.1282051   0.5000000), wk =   0.0377358
        k(   39) = (   0.1538462   0.1538462   0.5000000), wk =   0.0377358
        k(   40) = (   0.1794872   0.1794872   0.5000000), wk =   0.0377358
        k(   41) = (   0.2051282   0.2051282   0.5000000), wk =   0.0377358
        k(   42) = (   0.2307692   0.2307692   0.5000000), wk =   0.0377358
        k(   43) = (   0.2564103   0.2564103   0.5000000), wk =   0.0377358
        k(   44) = (   0.2820513   0.2820513   0.5000000), wk =   0.0377358
        k(   45) = (   0.3076923   0.3076923   0.5000000), wk =   0.0377358
        k(   46) = (   0.3333333   0.3333333   0.5000000), wk =   0.0377358
        k(   47) = (   0.3333333   0.3333333   0.4285714), wk =   0.0377358
        k(   48) = (   0.3333333   0.3333333   0.3571429), wk =   0.0377358
        k(   49) = (   0.3333333   0.3333333   0.2857143), wk =   0.0377358
        k(   50) = (   0.3333333   0.3333333   0.2142857), wk =   0.0377358
        k(   51) = (   0.3333333   0.3333333   0.1428571), wk =   0.0377358
        k(   52) = (   0.3333333   0.3333333   0.0714286), wk =   0.0377358
        k(   53) = (   0.3333333   0.3333333   0.0000000), wk =   0.0377358

     Dense  grid:    15291 G-vectors     FFT dimensions: (  27,  27,  48)

     Dynamical RAM for                 wfc:       1.05 MB

     Dynamical RAM for     wfc (w. buffer):       1.05 MB

     Dynamical RAM for           str. fact:       0.47 MB

     Dynamical RAM for           local pot:       0.00 MB

     Dynamical RAM for          nlocal pot:       1.81 MB

     Dynamical RAM for                qrad:       2.27 MB

     Dynamical RAM for          rho,v,vnew:       1.50 MB

     Dynamical RAM for           G-vectors:       0.99 MB

     Dynamical RAM for          h,s,v(r/c):       0.24 MB

     Dynamical RAM for          <psi|beta>:       0.03 MB

     Dynamical RAM for                 psi:       2.11 MB

     Dynamical RAM for                hpsi:       2.11 MB

     Dynamical RAM for      wfcinit/wfcrot:       2.14 MB

     Estimated static dynamical RAM per process >      10.13 MB

     Estimated max dynamical RAM per process >      14.62 MB

     Check: negative core charge=   -0.000270

     The potential is recalculated from file :
     ./out/kc.save/charge-density

     Starting wfcs are   28 randomized atomic wfcs +    8 random wfcs

     Band Structure Calculation
     Davidson diagonalization with overlap

     Computing kpt #:     1  of    53
     total cpu time spent up to now is        0.5 secs

     Computing kpt #:     2  of    53
     total cpu time spent up to now is        0.9 secs

     Computing kpt #:     3  of    53
     total cpu time spent up to now is        1.2 secs

     Computing kpt #:     4  of    53
     total cpu time spent up to now is        1.5 secs

     Computing kpt #:     5  of    53
     total cpu time spent up to now is        1.8 secs

     Computing kpt #:     6  of    53
     total cpu time spent up to now is        2.1 secs

     Computing kpt #:     7  of    53
     total cpu time spent up to now is        2.4 secs

     Computing kpt #:     8  of    53
     total cpu time spent up to now is        2.7 secs

     Computing kpt #:     9  of    53
     total cpu time spent up to now is        3.0 secs

     Computing kpt #:    10  of    53
     total cpu time spent up to now is        3.3 secs

     Computing kpt #:    11  of    53
     total cpu time spent up to now is        3.6 secs

     Computing kpt #:    12  of    53
     total cpu time spent up to now is        3.9 secs

     Computing kpt #:    13  of    53
     total cpu time spent up to now is        4.3 secs

     Computing kpt #:    14  of    53
     total cpu time spent up to now is        4.6 secs

     Computing kpt #:    15  of    53
     total cpu time spent up to now is        4.9 secs

     Computing kpt #:    16  of    53
     total cpu time spent up to now is        5.3 secs

     Computing kpt #:    17  of    53
     total cpu time spent up to now is        5.7 secs

     Computing kpt #:    18  of    53
     total cpu time spent up to now is        6.1 secs

     Computing kpt #:    19  of    53
     total cpu time spent up to now is        6.4 secs

     Computing kpt #:    20  of    53
     total cpu time spent up to now is        6.8 secs

     Computing kpt #:    21  of    53
     total cpu time spent up to now is        7.2 secs

     Computing kpt #:    22  of    53
     total cpu time spent up to now is        7.6 secs

     Computing kpt #:    23  of    53
     total cpu time spent up to now is        8.0 secs

     Computing kpt #:    24  of    53
     total cpu time spent up to now is        8.3 secs

     Computing kpt #:    25  of    53
     total cpu time spent up to now is        8.7 secs

     Computing kpt #:    26  of    53
     total cpu time spent up to now is        9.1 secs

     Computing kpt #:    27  of    53
     total cpu time spent up to now is        9.6 secs

     Computing kpt #:    28  of    53
     total cpu time spent up to now is       10.0 secs

     Computing kpt #:    29  of    53
     total cpu time spent up to now is       10.4 secs

     Computing kpt #:    30  of    53
     total cpu time spent up to now is       10.9 secs

     Computing kpt #:    31  of    53
     total cpu time spent up to now is       11.3 secs

     Computing kpt #:    32  of    53
     total cpu time spent up to now is       11.7 secs

     Computing kpt #:    33  of    53
     total cpu time spent up to now is       12.0 secs

     Computing kpt #:    34  of    53
     total cpu time spent up to now is       12.3 secs

     Computing kpt #:    35  of    53
     total cpu time spent up to now is       12.7 secs

     Computing kpt #:    36  of    53
     total cpu time spent up to now is       13.0 secs

     Computing kpt #:    37  of    53
     total cpu time spent up to now is       13.4 secs

     Computing kpt #:    38  of    53
     total cpu time spent up to now is       13.8 secs

     Computing kpt #:    39  of    53
     total cpu time spent up to now is       14.1 secs

     Computing kpt #:    40  of    53
     total cpu time spent up to now is       14.4 secs

     Computing kpt #:    41  of    53
     total cpu time spent up to now is       14.8 secs

     Computing kpt #:    42  of    53
     total cpu time spent up to now is       15.1 secs

     Computing kpt #:    43  of    53
     total cpu time spent up to now is       15.4 secs

     Computing kpt #:    44  of    53
     total cpu time spent up to now is       15.7 secs

     Computing kpt #:    45  of    53
     total cpu time spent up to now is       16.0 secs

     Computing kpt #:    46  of    53
     total cpu time spent up to now is       16.3 secs

     Computing kpt #:    47  of    53
     total cpu time spent up to now is       16.6 secs

     Computing kpt #:    48  of    53
     total cpu time spent up to now is       17.0 secs

     Computing kpt #:    49  of    53
     total cpu time spent up to now is       17.3 secs

     Computing kpt #:    50  of    53
     total cpu time spent up to now is       17.7 secs

     Computing kpt #:    51  of    53
     total cpu time spent up to now is       18.1 secs

     Computing kpt #:    52  of    53
     total cpu time spent up to now is       18.5 secs

     Computing kpt #:    53  of    53
     total cpu time spent up to now is       18.8 secs

     ethr =  2.00E-10,  avg # of iterations = 22.7

     total cpu time spent up to now is       18.9 secs

     End of band structure calculation

          k = 0.0000 0.0000-0.3121 (  1894 PWs)   bands (ev):

  -115.9196-115.9196 -69.6038 -69.6038 -69.5348 -69.5348 -69.5347 -69.5347
    -8.2003  -8.2003   3.1076   3.1076   3.3416   3.3416   3.3423   3.3423
     4.4254   4.4254   4.4254   4.4254   6.9178   6.9178   8.9249   8.9249
     8.9256   8.9256  12.6625  12.6625  19.1961  19.1961  22.2963  22.2963
    22.2986  22.2986  27.2995  27.2995

          k =-0.0500-0.0289-0.3121 (  1900 PWs)   bands (ev):

  -115.9196-115.9196 -69.6011 -69.6011 -69.5450 -69.5450 -69.5437 -69.5437
    -8.1894  -8.1894   3.0911   3.0911   3.3354   3.3354   3.3363   3.3363
     4.4177   4.4177   4.4346   4.4346   6.9116   6.9116   8.8397   8.8397
     8.8886   8.8886  12.7469  12.7469  19.1905  19.1905  22.1027  22.1027
    22.3188  22.3188  27.4323  27.4323

          k =-0.1000-0.0577-0.3121 (  1896 PWs)   bands (ev):

  -115.9195-115.9195 -69.5894 -69.5894 -69.5412 -69.5412 -69.5404 -69.5404
    -8.1569  -8.1569   3.0748   3.0748   3.3590   3.3590   3.3719   3.3719
     4.4340   4.4340   4.4587   4.4587   6.9083   6.9083   8.6389   8.6389
     8.8142   8.8142  12.9766  12.9766  19.1638  19.1638  21.6620  21.6620
    22.3921  22.3921  27.4989  27.4989

          k =-0.1500-0.0866-0.3121 (  1914 PWs)   bands (ev):

  -115.9196-115.9196 -69.5947 -69.5947 -69.5691 -69.5691 -69.5580 -69.5580
    -8.1067  -8.1067   3.0273   3.0273   3.3717   3.3717   3.3724   3.3724
     4.4237   4.4237   4.4469   4.4469   6.8472   6.8472   8.3492   8.3492
     8.6666   8.6666  13.2885  13.2885  19.0722  19.0722  21.1873  21.1873
    22.4853  22.4853  27.1515  27.1515

          k =-0.2000-0.1155-0.3121 (  1922 PWs)   bands (ev):

  -115.9196-115.9196 -69.5943 -69.5943 -69.5863 -69.5863 -69.5622 -69.5622
    -8.0419  -8.0419   2.9923   2.9923   3.4115   3.4115   3.4269   3.4269
     4.4260   4.4260   4.4299   4.4299   6.7255   6.7255   8.0974   8.0974
     8.4946   8.4946  13.6372  13.6372  18.8686  18.8686  20.8496  20.8496
    22.6013  22.6013  26.6197  26.6197

          k =-0.2500-0.1443-0.3121 (  1918 PWs)   bands (ev):

  -115.9195-115.9195 -69.5964 -69.5964 -69.5726 -69.5726 -69.5573 -69.5573
    -7.9690  -7.9690   2.9637   2.9637   3.4848   3.4848   3.4917   3.4917
     4.4433   4.4433   4.4652   4.4652   6.5211   6.5211   7.9419   7.9419
     8.3241   8.3241  13.9838  13.9838  18.5731  18.5731  20.6818  20.6818
    22.7085  22.7085  26.1171  26.1171

          k =-0.3000-0.1732-0.3121 (  1918 PWs)   bands (ev):

  -115.9195-115.9195 -69.5906 -69.5906 -69.5743 -69.5743 -69.5551 -69.5551
    -7.8946  -7.8946   2.9478   2.9478   3.5496   3.5496   3.5607   3.5607
     4.4605   4.4605   4.5004   4.5004   6.2228   6.2228   7.8767   7.8767
     8.1352   8.1352  14.2911  14.2911  18.2508  18.2508  20.6059  20.6059
    22.7996  22.7996  25.7306  25.7306

          k =-0.3500-0.2021-0.3121 (  1924 PWs)   bands (ev):

  -115.9195-115.9195 -69.5989 -69.5989 -69.5762 -69.5762 -69.5612 -69.5612
    -7.8271  -7.8271   2.9357   2.9357   3.6040   3.6040   3.6303   3.6303
     4.4599   4.4599   4.5191   4.5191   5.8790   5.8790   7.8687   7.8687
     7.9647   7.9647  14.5440  14.5440  17.9634  17.9634  20.5466  20.5466
    22.8588  22.8588  25.4958  25.4958

          k =-0.4000-0.2309-0.3121 (  1928 PWs)   bands (ev):

  -115.9195-115.9195 -69.5920 -69.5920 -69.5835 -69.5835 -69.5700 -69.5700
    -7.7724  -7.7724   2.9400   2.9400   3.6471   3.6471   3.7054   3.7054
     4.4669   4.4669   4.5492   4.5492   5.5667   5.5667   7.8248   7.8248
     7.8679   7.8679  14.7333  14.7333  17.7518  17.7518  20.4840  20.4840
    22.8865  22.8865  25.3994  25.3994

          k =-0.4500-0.2598-0.3121 (  1918 PWs)   bands (ev):

  -115.9195-115.9195 -69.5852 -69.5852 -69.5710 -69.5710 -69.5574 -69.5574
    -7.7361  -7.7361   2.9662   2.9662   3.6756   3.6756   3.8023   3.8023
     4.4753   4.4753   4.6168   4.6168   5.3497   5.3497   7.7400   7.7400
     7.8872   7.8872  14.8525  14.8525  17.6340  17.6340  20.4393  20.4393
    22.9091  22.9091  25.3871  25.3871

          k =-0.5000-0.2887-0.3121 (  1924 PWs)   bands (ev):

  -115.9195-115.9195 -69.5896 -69.5896 -69.5733 -69.5733 -69.5714 -69.5714
    -7.7239  -7.7239   2.9596   2.9596   3.6827   3.6827   3.8017   3.8017
     4.4766   4.4766   4.6294   4.6294   5.2414   5.2414   7.7059   7.7059
     7.8925   7.8925  14.8886  14.8886  17.5932  17.5932  20.4172  20.4172
    22.9126  22.9126  25.3816  25.3816

          k =-0.5000-0.2887-0.2497 (  1924 PWs)   bands (ev):

  -115.9195-115.9195 -69.5934 -69.5886 -69.5877 -69.5763 -69.5645 -69.5578
    -7.7610  -7.6882   2.9582   3.0166   3.6244   3.7161   3.8170   3.8341
     4.4562   4.4670   4.5811   4.6559   5.2120   5.3025   7.4816   7.5840
     7.9206   8.1007  14.6782  15.2044  17.4672  17.6661  19.9640  21.0105
    22.7746  23.0541  24.4788  26.4397

          k =-0.5000-0.2887-0.1873 (  1924 PWs)   bands (ev):

  -115.9195-115.9195 -69.5916 -69.5896 -69.5782 -69.5743 -69.5740 -69.5619
    -7.7972  -7.6583   2.9786   3.0989   3.5681   3.8093   3.8246   3.8370
     4.4688   4.5204   4.5240   4.6551   5.1763   5.3831   7.1960   7.2901
     8.1131   8.1436  14.6213  15.5429  17.3021  17.6745  19.7279  21.5629
    22.6482  23.2019  23.9188  27.4064

          k =-0.5000-0.2887-0.1248 (  1928 PWs)   bands (ev):

  -115.9195-115.9195 -69.5955 -69.5895 -69.5876 -69.5849 -69.5787 -69.5681
    -7.8262  -7.6365   3.0056   3.2077   3.5202   3.8537   3.8588   3.8648
     4.4432   4.4488   4.4998   4.6851   5.1828   5.4412   6.7964   7.1077
     8.1155   8.2707  14.7086  15.8243  17.1109  17.6313  19.6925  21.7513
    22.5490  23.3095  24.0219  27.8817

          k =-0.5000-0.2887-0.0624 (  1920 PWs)   bands (ev):

  -115.9195-115.9195 -69.5911 -69.5851 -69.5842 -69.5745 -69.5662 -69.5589
    -7.8451  -7.6223   3.0484   3.3056   3.5018   3.9031   3.9080   3.9089
     4.4154   4.4472   4.5221   4.7102   5.2351   5.5082   6.4977   6.9972
     8.0324   8.3715  14.8534  16.0046  16.9360  17.5831  19.7603  21.6391
    22.4922  23.3871  24.6218  27.8629

          k =-0.5000-0.2887 0.0000 (  1906 PWs)   bands (ev):

  -115.9195-115.9194 -69.5741 -69.5667 -69.5625 -69.5597 -69.5552 -69.5492
    -7.8511  -7.6169   3.0762   3.3609   3.5113   3.9246   3.9533   3.9667
     4.3721   4.4891   4.5989   4.7301   5.2829   5.5432   6.3689   6.9829
     7.9936   8.4199  14.9272  16.0726  16.8687  17.5584  19.8089  21.5737
    22.4781  23.4331  24.9913  27.8042

          k =-0.4545-0.2624 0.0000 (  1916 PWs)   bands (ev):

  -115.9195-115.9195 -69.5857 -69.5778 -69.5763 -69.5758 -69.5637 -69.5527
    -7.8729  -7.6159   3.0471   3.3477   3.4966   3.8891   3.9203   3.9524
     4.3628   4.4365   4.5784   4.7643   5.1993   5.6157   6.3776   6.9976
     8.0535   8.4244  14.7318  16.2307  16.8667  17.5814  19.8346  21.5365
    22.4934  23.3981  24.9999  27.7838

          k =-0.4091-0.2362 0.0000 (  1922 PWs)   bands (ev):

  -115.9195-115.9195 -69.6027 -69.5928 -69.5803 -69.5745 -69.5651 -69.5533
    -7.9299  -7.6156   3.0146   3.3527   3.4798   3.8019   3.8541   3.9713
     4.3060   4.4085   4.5739   4.8192   5.1661   5.7047   6.4591   7.0875
     8.1777   8.4777  14.3117  16.5549  16.8620  17.6541  19.9224  21.4899
    22.5442  23.3490  25.0124  27.7035

          k =-0.3636-0.2099 0.0000 (  1916 PWs)   bands (ev):

  -115.9195-115.9195 -69.5955 -69.5905 -69.5795 -69.5753 -69.5484 -69.5394
    -8.0102  -7.6237   2.9909   3.3546   3.4751   3.7266   3.8478   4.0127
     4.2501   4.4117   4.5508   4.8090   5.2018   5.8221   6.6651   7.2509
     8.3605   8.5948  13.8241  16.7463  16.9391  17.8196  20.0480  21.5183
    22.6142  23.2993  25.0064  27.5746

          k =-0.3182-0.1837 0.0000 (  1914 PWs)   bands (ev):

  -115.9196-115.9194 -69.6179 -69.5840 -69.5795 -69.5647 -69.5405 -69.5332
    -8.1046  -7.6409   2.9717   3.3658   3.4585   3.6466   3.7678   4.0302
     4.1704   4.4044   4.5461   4.7976   5.1739   6.0889   6.9138   7.4382
     8.5560   8.7046  13.2942  16.5918  17.1835  18.1002  20.2403  21.7183
    22.6387  23.2899  24.9356  27.4718

          k =-0.2727-0.1575 0.0000 (  1914 PWs)   bands (ev):

  -115.9196-115.9194 -69.6045 -69.5858 -69.5806 -69.5646 -69.5527 -69.5365
    -8.2047  -7.6668   3.0108   3.3497   3.4199   3.5719   3.6518   3.9465
     4.1981   4.3795   4.5611   4.8067   5.0352   6.4775   7.2393   7.6244
     8.7357   8.8168  12.7496  16.3078  17.3399  18.5211  20.5395  22.1037
    22.5756  23.3479  24.7953  27.2846

          k =-0.2273-0.1312 0.0000 (  1902 PWs)   bands (ev):

  -115.9196-115.9194 -69.5731 -69.5693 -69.5621 -69.5518 -69.5501 -69.5478
    -8.3023  -7.6976   3.0538   3.3680   3.3701   3.5318   3.6023   3.8950
     4.2494   4.3469   4.5560   4.8372   4.9094   6.9231   7.6322   7.8520
     8.9088   8.9424  12.2178  15.9139  17.4253  19.0730  20.9641  22.4590
    22.6127  23.4427  24.6426  26.8467

          k =-0.1818-0.1050 0.0000 (  1898 PWs)   bands (ev):

  -115.9196-115.9194 -69.5761 -69.5677 -69.5595 -69.5473 -69.5442 -69.5421
    -8.3915  -7.7308   3.1047   3.3394   3.3735   3.4589   3.5418   3.8078
     4.2847   4.3498   4.5592   4.7964   4.8623   7.3630   7.9800   8.0543
     9.0368   9.0661  11.6774  15.4638  17.4617  19.7113  21.4886  22.3206
    23.1145  23.4986  24.5997  26.6358

          k =-0.1364-0.0787 0.0000 (  1900 PWs)   bands (ev):

  -115.9196-115.9195 -69.5749 -69.5726 -69.5638 -69.5620 -69.5421 -69.5374
    -8.4666  -7.7613   3.1407   3.2921   3.3811   3.4223   3.5039   3.7246
     4.3009   4.3413   4.5218   4.6615   4.8836   7.8004   8.2362   8.3313
     9.1465   9.1587  11.1566  15.0162  17.4735  20.4138  22.0628  22.1907
    23.3691  23.4669  24.8843  26.6689

          k =-0.0909-0.0525 0.0000 (  1882 PWs)   bands (ev):

  -115.9196-115.9194 -69.5638 -69.5502 -69.5424 -69.5389 -69.5258 -69.5194
    -8.5233  -7.7851   3.2013   3.2814   3.4016   3.4444   3.4795   3.6734
     4.3522   4.3570   4.5356   4.6333   4.9553   8.1843   8.3906   8.7124
     9.2391   9.2446  10.6670  14.6370  17.4861  21.1346  22.0948  22.6428
    23.3607  23.3804  25.4131  26.9286

          k =-0.0455-0.0262 0.0000 (  1894 PWs)   bands (ev):

  -115.9196-115.9194 -69.5719 -69.5613 -69.5577 -69.5531 -69.5437 -69.5277
    -8.5592  -7.8006   3.2176   3.2477   3.4019   3.4094   3.4156   3.6377
     4.3300   4.3402   4.4667   4.5257   5.0102   8.4184   8.4713   9.0646
     9.2750   9.2810  10.2202  14.3763  17.4765  21.7360  22.0267  23.0796
    23.2725  23.2884  25.7081  27.2871

          k = 0.0000 0.0000 0.0000 (  1907 PWs)   bands (ev):

  -115.9196-115.9195 -69.5868 -69.5868 -69.5843 -69.5550 -69.5549 -69.5320
    -8.5714  -7.8069   3.2161   3.2170   3.3992   3.4125   3.4129   3.6193
     4.3155   4.3157   4.4229   4.4231   4.9917   8.4794   8.4805   9.2677
     9.2677   9.2877   9.9770  14.2824  17.4563  21.9959  21.9971  23.2213
    23.2515  23.2549  25.7096  27.4930

          k = 0.0000 0.0000-0.0520 (  1900 PWs)   bands (ev):

  -115.9196-115.9195 -69.5922 -69.5616 -69.5615 -69.5479 -69.5479 -69.5429
    -8.5590  -7.8202   3.2401   3.2409   3.3631   3.4118   3.4123   3.5670
     4.3316   4.3318   4.4471   4.4473   5.0537   8.5309   8.5321   9.0609
     9.2801   9.2802  10.2277  14.2282  17.5252  22.0053  22.0066  22.9377
    23.1987  23.2020  25.8044  27.5716

          k = 0.0000 0.0000-0.1040 (  1900 PWs)   bands (ev):

  -115.9197-115.9194 -69.6043 -69.5803 -69.5544 -69.5543 -69.5366 -69.5365
    -8.5236  -7.8606   3.2546   3.2554   3.2701   3.4037   3.4041   3.4349
     4.3178   4.3179   4.5226   4.5227   5.2892   8.5789   8.5800   8.5848
     9.2463   9.2465  10.6532  14.0837  17.6508  22.0078  22.0092  22.2509
    23.0671  23.0703  26.0054  27.7836

          k = 0.0000 0.0000-0.1561 (  1882 PWs)   bands (ev):

  -115.9196-115.9194 -69.5870 -69.5659 -69.5302 -69.5302 -69.5266 -69.5265
    -8.4652  -7.9235   3.2283   3.2902   3.2910   3.3184   3.4197   3.4202
     4.3769   4.3770   4.5411   4.5413   5.6503   8.1818   8.6584   8.6594
     9.2039   9.2042  11.1520  13.8434  17.8798  21.4474  22.0377  22.0393
    22.8775  22.8805  26.2657  28.1468

          k = 0.0000 0.0000-0.2081 (  1882 PWs)   bands (ev):

  -115.9196-115.9195 -69.5848 -69.5693 -69.5296 -69.5296 -69.5294 -69.5293
    -8.3888  -8.0055   3.1813   3.2305   3.3030   3.3037   3.3933   3.3938
     4.4029   4.4031   4.5156   4.5157   6.0465   7.7649   8.7427   8.7436
     9.1245   9.1249  11.6654  13.5161  18.2090  20.6311  22.0853  22.0870
    22.6653  22.6681  26.5663  28.1427

          k = 0.0000 0.0000-0.2601 (  1900 PWs)   bands (ev):

  -115.9196-115.9196 -69.6330 -69.5882 -69.5484 -69.5483 -69.5327 -69.5326
    -8.2986  -8.1014   3.1029   3.1441   3.3080   3.3087   3.3592   3.3598
     4.4119   4.4119   4.4157   4.4158   6.4357   7.3452   8.8250   8.8259
     9.0258   9.0264  12.1730  13.1050  18.6390  19.8724  22.1675  22.1695
    22.4583  22.4608  26.9131  27.7110

          k = 0.0000 0.0000-0.3121 (  1894 PWs)   bands (ev):

  -115.9196-115.9196 -69.6038 -69.6038 -69.5348 -69.5348 -69.5347 -69.5347
    -8.2003  -8.2003   3.1076   3.1076   3.3416   3.3416   3.3423   3.3423
     4.4254   4.4254   4.4254   4.4254   6.9178   6.9178   8.9249   8.9249
     8.9256   8.9256  12.6625  12.6625  19.1961  19.1961  22.2963  22.2963
    22.2986  22.2986  27.2995  27.2995

          k =-0.0513 0.0000-0.3121 (  1900 PWs)   bands (ev):

  -115.9196-115.9196 -69.6024 -69.6024 -69.5448 -69.5448 -69.5435 -69.5435
    -8.1917  -8.1917   3.0940   3.0940   3.3257   3.3257   3.3428   3.3428
     4.4083   4.4083   4.4351   4.4351   6.9140   6.9140   8.8546   8.8546
     8.8991   8.8991  12.7291  12.7291  19.1919  19.1919  22.1414  22.1414
    22.3122  22.3122  27.4105  27.4105

          k =-0.1026 0.0000-0.3121 (  1896 PWs)   bands (ev):

  -115.9195-115.9195 -69.5872 -69.5872 -69.5444 -69.5444 -69.5411 -69.5411
    -8.1659  -8.1659   3.0855   3.0855   3.3409   3.3409   3.3698   3.3698
     4.4284   4.4284   4.4603   4.4603   6.9126   6.9126   8.6876   8.6876
     8.8391   8.8391  12.9152  12.9152  19.1763  19.1763  21.7722  21.7722
    22.3676  22.3676  27.5420  27.5420

          k =-0.1538 0.0000-0.3121 (  1908 PWs)   bands (ev):

  -115.9196-115.9196 -69.5981 -69.5981 -69.5681 -69.5681 -69.5390 -69.5390
    -8.1254  -8.1254   3.0429   3.0429   3.3462   3.3462   3.3934   3.3934
     4.4353   4.4353   4.4543   4.4543   6.8615   6.8615   8.4433   8.4433
     8.7136   8.7136  13.1764  13.1764  19.1165  19.1165  21.3395  21.3395
    22.4341  22.4341  27.4449  27.4449

          k =-0.2051 0.0000-0.3121 (  1910 PWs)   bands (ev):

  -115.9195-115.9195 -69.5964 -69.5964 -69.5733 -69.5733 -69.5375 -69.5375
    -8.0720  -8.0720   3.0143   3.0143   3.3723   3.3723   3.4433   3.4433
     4.4266   4.4266   4.4753   4.4753   6.7971   6.7971   8.2322   8.2322
     8.5519   8.5519  13.4956  13.4956  18.9978  18.9978  20.9638  20.9638
    22.4926  22.4926  27.2319  27.2319

          k =-0.2564 0.0000-0.3121 (  1926 PWs)   bands (ev):

  -115.9196-115.9196 -69.6131 -69.6131 -69.5902 -69.5902 -69.5516 -69.5516
    -8.0104  -8.0104   2.9687   2.9687   3.3889   3.3889   3.4989   3.4989
     4.4097   4.4097   4.4378   4.4378   6.6550   6.6550   8.0396   8.0396
     8.3494   8.3494  13.8327  13.8327  18.8046  18.8046  20.6677  20.6677
    22.5264  22.5264  27.0023  27.0023

          k =-0.3077 0.0000-0.3121 (  1926 PWs)   bands (ev):

  -115.9196-115.9196 -69.6141 -69.6141 -69.5825 -69.5825 -69.5536 -69.5536
    -7.9433  -7.9433   2.9695   2.9695   3.4212   3.4212   3.5562   3.5562
     4.4131   4.4131   4.4749   4.4749   6.4707   6.4707   7.9099   7.9099
     8.1439   8.1439  14.1887  14.1887  18.5808  18.5808  20.4178  20.4178
    22.5790  22.5790  26.8004  26.8004

          k =-0.3590 0.0000-0.3121 (  1916 PWs)   bands (ev):

  -115.9195-115.9195 -69.5892 -69.5892 -69.5743 -69.5743 -69.5525 -69.5525
    -7.8762  -7.8762   2.9923   2.9923   3.4661   3.4661   3.6330   3.6330
     4.4384   4.4384   4.5431   4.5431   6.2523   6.2523   7.7427   7.7427
     8.0185   8.0185  14.5630  14.5630  18.3659  18.3659  20.1352  20.1352
    22.6997  22.6997  26.5945  26.5945

          k =-0.4103 0.0000-0.3121 (  1918 PWs)   bands (ev):

  -115.9195-115.9195 -69.5832 -69.5832 -69.5782 -69.5782 -69.5583 -69.5583
    -7.8140  -7.8140   3.0326   3.0326   3.4981   3.4981   3.6819   3.6819
     4.4354   4.4354   4.5798   4.5798   6.0138   6.0138   7.4799   7.4799
     7.9888   7.9888  14.9460  14.9460  18.1771  18.1771  19.7812  19.7812
    22.9098  22.9098  26.3723  26.3723

          k =-0.4615 0.0000-0.3121 (  1922 PWs)   bands (ev):

  -115.9195-115.9195 -69.5891 -69.5891 -69.5714 -69.5714 -69.5681 -69.5681
    -7.7604  -7.7604   3.0813   3.0813   3.5337   3.5337   3.7165   3.7165
     4.4479   4.4479   4.6363   4.6363   5.7594   5.7594   7.1905   7.1905
     7.9969   7.9969  15.3515  15.3515  18.0212  18.0212  19.3565  19.3565
    23.2187  23.2187  26.1518  26.1518

          k =-0.5128 0.0000-0.3121 (  1926 PWs)   bands (ev):

  -115.9195-115.9195 -69.5909 -69.5909 -69.5814 -69.5814 -69.5686 -69.5686
    -7.7184  -7.7184   3.1442   3.1442   3.5385   3.5385   3.7959   3.7959
     4.3879   4.3879   4.7098   4.7098   5.5633   5.5633   6.9119   6.9119
     8.0117   8.0117  15.7751  15.7751  17.9030  17.9030  18.8969  18.8969
    23.6120  23.6120  25.9251  25.9251

          k =-0.5641 0.0000-0.3121 (  1924 PWs)   bands (ev):

  -115.9195-115.9195 -69.5844 -69.5844 -69.5822 -69.5822 -69.5686 -69.5686
    -7.6888  -7.6888   3.2078   3.2078   3.5274   3.5274   3.8803   3.8803
     4.3639   4.3639   4.7830   4.7830   5.4225   5.4225   6.6835   6.6835
     8.0301   8.0301  16.2266  16.2266  17.7890  17.7890  18.4393  18.4393
    24.0679  24.0679  25.6780  25.6780

          k =-0.6154 0.0000-0.3121 (  1920 PWs)   bands (ev):

  -115.9195-115.9195 -69.5788 -69.5788 -69.5749 -69.5749 -69.5704 -69.5704
    -7.6721  -7.6721   3.2699   3.2699   3.5031   3.5031   3.9563   3.9563
     4.3379   4.3379   4.8484   4.8484   5.3464   5.3464   6.5248   6.5248
     8.0372   8.0372  16.7051  16.7051  17.5923  17.5923  18.0877  18.0877
    24.5433  24.5433  25.3844  25.3844

          k =-0.6667 0.0000-0.3121 (  1908 PWs)   bands (ev):

  -115.9194-115.9194 -69.5821 -69.5821 -69.5524 -69.5524 -69.5523 -69.5523
    -7.6656  -7.6656   3.3100   3.3100   3.5020   3.5020   3.9834   3.9834
     4.3668   4.3668   4.9004   4.9004   5.3344   5.3344   6.4650   6.4650
     8.0528   8.0528  17.1180  17.1180  17.2830  17.2830  17.9823  17.9823
    24.9219  24.9219  25.0874  25.0874

          k =-0.6667 0.0000-0.2675 (  1908 PWs)   bands (ev):

  -115.9194-115.9194 -69.5715 -69.5715 -69.5648 -69.5564 -69.5563 -69.5521
    -7.6670  -7.6669   3.3211   3.3212   3.4251   3.5860   4.0020   4.0020
     4.3437   4.3603   4.8848   4.8848   5.3486   5.3487   6.2493   6.6969
     8.0165   8.0167  17.0818  17.0823  17.2301  17.3206  18.0812  18.0820
    24.2388  24.9850  24.9853  25.6823

          k =-0.6667 0.0000-0.2229 (  1908 PWs)   bands (ev):

  -115.9194-115.9194 -69.5749 -69.5748 -69.5639 -69.5541 -69.5541 -69.5465
    -7.6685  -7.6684   3.3636   3.3637   3.3681   3.6915   4.0020   4.0021
     4.3341   4.3775   4.8587   4.8588   5.3675   5.3677   6.0446   6.8979
     7.9151   7.9155  17.0068  17.0076  17.1772  17.3569  18.3444  18.3457
    23.6533  24.6994  24.7000  26.5176

          k =-0.6667 0.0000-0.1783 (  1911 PWs)   bands (ev):

  -115.9194-115.9194 -69.5797 -69.5734 -69.5734 -69.5534 -69.5534 -69.5495
    -7.6710  -7.6709   3.3016   3.4277   3.4278   3.8023   4.0492   4.0492
     4.3260   4.3441   4.7963   4.7963   5.3854   5.3856   5.8281   7.0688
     7.7883   7.7889  16.9371  16.9378  17.1136  17.3847  18.7045  18.7060
    23.1557  24.2868  24.2878  27.4094

          k =-0.6667 0.0000-0.1338 (  1929 PWs)   bands (ev):

  -115.9195-115.9195 -69.6023 -69.5899 -69.5898 -69.5739 -69.5739 -69.5700
    -7.6743  -7.6742   3.2316   3.4797   3.4798   3.8595   4.0718   4.0719
     4.2884   4.3031   4.6782   4.6783   5.4139   5.4141   5.6221   7.2145
     7.6121   7.6129  16.8782  16.8788  17.0466  17.3952  19.1073  19.1089
    22.7534  23.8232  23.8243  28.3233

          k =-0.6667 0.0000-0.0892 (  1935 PWs)   bands (ev):

  -115.9195-115.9195 -69.6023 -69.5969 -69.5969 -69.5845 -69.5844 -69.5729
    -7.6769  -7.6767   3.2026   3.5303   3.5305   3.9346   4.1047   4.1048
     4.2841   4.3034   4.6026   4.6027   5.4514   5.4517   5.4546   7.3349
     7.4452   7.4462  16.8398  16.8403  17.0012  17.3975  19.5139  19.5156
    22.4793  23.3759  23.3772  29.2276

          k =-0.6667 0.0000-0.0446 (  1929 PWs)   bands (ev):

  -115.9195-115.9195 -69.5921 -69.5882 -69.5882 -69.5768 -69.5768 -69.5730
    -7.6784  -7.6782   3.1989   3.5852   3.5854   3.9952   4.1803   4.1803
     4.2750   4.3293   4.5385   4.5386   5.3577   5.4899   5.4902   7.3504
     7.3515   7.4136  16.8217  16.8222  16.9747  17.4036  19.8466  19.8482
    22.3176  23.0288  23.0303  30.0194

          k =-0.6667 0.0000 0.0000 (  1923 PWs)   bands (ev):

  -115.9195-115.9195 -69.5834 -69.5818 -69.5817 -69.5719 -69.5719 -69.5603
    -7.6786  -7.6784   3.2315   3.5977   3.5980   4.0316   4.2313   4.2313
     4.2763   4.3571   4.5000   4.5002   5.3513   5.5082   5.5085   7.3052
     7.3063   7.4396  16.8178  16.8183  16.9689  17.4148  19.9859  19.9876
    22.2717  22.8891  22.8907  30.4181

     Writing all to output data dir ./out/kc.save/
 
     init_run     :      0.08s CPU      0.08s WALL (       1 calls)
     electrons    :     18.42s CPU     18.67s WALL (       1 calls)

     Called by init_run:
     wfcinit      :      0.00s CPU      0.00s WALL (       1 calls)
     wfcinit:atom :      0.01s CPU      0.02s WALL (      53 calls)
     wfcinit:wfcr :      1.16s CPU      1.21s WALL (      53 calls)
     potinit      :      0.00s CPU      0.00s WALL (       1 calls)
     hinit0       :      0.06s CPU      0.06s WALL (       1 calls)

     Called by electrons:
     c_bands      :     18.42s CPU     18.64s WALL (       1 calls)
     v_of_rho     :      0.00s CPU      0.00s WALL (       1 calls)
     v_h          :      0.00s CPU      0.00s WALL (       1 calls)
     v_xc         :      0.00s CPU      0.00s WALL (       1 calls)

     Called by c_bands:
     init_us_2    :      0.01s CPU      0.03s WALL (      53 calls)
     init_us_2:cp :      0.01s CPU      0.03s WALL (      53 calls)
     cegterg      :     16.93s CPU     16.99s WALL (      83 calls)

     Called by sum_band:

     Called by *egterg:
     cdiaghg      :      1.39s CPU      1.41s WALL (    1257 calls)
     cegterg:over :      1.07s CPU      1.07s WALL (    1204 calls)
     cegterg:upda :      0.74s CPU      0.75s WALL (    1204 calls)
     cegterg:last :      1.22s CPU      1.23s WALL (     582 calls)
     h_psi        :     13.31s CPU     13.39s WALL (    1340 calls)
     g_psi        :      0.08s CPU      0.08s WALL (    1204 calls)

     Called by h_psi:
     h_psi:calbec :      0.69s CPU      0.69s WALL (    1340 calls)
     vloc_psi     :     11.87s CPU     11.94s WALL (    1340 calls)
     add_vuspsi   :      0.69s CPU      0.69s WALL (    1340 calls)

     General routines
     calbec       :      0.68s CPU      0.69s WALL (    1340 calls)
     fft          :      0.00s CPU      0.00s WALL (       4 calls)
     fftw         :     10.69s CPU     10.75s WALL (   46188 calls)
     davcio       :      0.05s CPU      0.12s WALL (     106 calls)
 
     Parallel routines
 
     PWSCF        :     18.68s CPU     19.05s WALL

 
   This run was terminated on:  16:39:16  17Oct2022            

=------------------------------------------------------------------------------=
   JOB DONE.
=------------------------------------------------------------------------------=
