
     Program PWSCF v.7.1 starts on 31Oct2022 at 16: 7:12 

     This program is part of the open-source Quantum ESPRESSO suite
     for quantum simulation of materials; please cite
         "P. Giannozzi et al., J. Phys.:Condens. Matter 21 395502 (2009);
         "P. Giannozzi et al., J. Phys.:Condens. Matter 29 465901 (2017);
         "P. Giannozzi et al., J. Chem. Phys. 152 154105 (2020);
          URL http://www.quantum-espresso.org", 
     in publications or presentations arising from this work. More details at
     http://www.quantum-espresso.org/quote

     Parallel version (MPI), running on    24 processors

     MPI processes distributed on     1 nodes
     181409 MiB available memory on the printing compute node when the environment starts
 
     Reading input from bands.pwi
Warning: card &IONS ignored
Warning: card / ignored
Warning: card &CELL ignored
Warning: card / ignored

     Current dimensions of program PWSCF are:
     Max number of different atomic species (ntypx) = 10
     Max number of k-points (npk) =  40000
     Max angular momentum in pseudopotentials (lmaxx) =  4

     Atomic positions and unit cell read from directory:
     /home/degennar/CODES/hubbard-koopmans-2022/Day3/exercise2/postproc/TMP/kc_bands.save/
     Atomic positions from file used, from input discarded
 
 
     K-points division:     npool     =       4
     R & G space division:  proc/nbgrp/npool/nimage =       6
     Subspace diagonalization in iterative solution of the eigenvalue problem:
     a serial algorithm will be used

 
     Parallelization info
     --------------------
     sticks:   dense  smooth     PW     G-vecs:    dense   smooth      PW
     Min          49      49     15                  547      547     101
     Max          50      50     16                  549      549     103
     Sum         295     295     91                 3287     3287     609
 
     Using Slab Decomposition
 


     bravais-lattice index     =            2
     lattice parameter (alat)  =      10.2622  a.u.
     unit-cell volume          =     270.1851 (a.u.)^3
     number of atoms/cell      =            2
     number of atomic types    =            1
     number of electrons       =         8.00
     number of Kohn-Sham states=           20
     kinetic-energy cutoff     =      20.0000  Ry
     charge density cutoff     =      80.0000  Ry
     Exchange-correlation= SLA  PW   NOGX NOGC
                           (   1   4   0   0   0   0   0)

     celldm(1)=  10.262200  celldm(2)=   0.000000  celldm(3)=   0.000000
     celldm(4)=   0.000000  celldm(5)=   0.000000  celldm(6)=   0.000000

     crystal axes: (cart. coord. in units of alat)
               a(1) = (  -0.500000   0.000000   0.500000 )  
               a(2) = (   0.000000   0.500000   0.500000 )  
               a(3) = (  -0.500000   0.500000   0.000000 )  

     reciprocal axes: (cart. coord. in units 2 pi/alat)
               b(1) = ( -1.000000 -1.000000  1.000000 )  
               b(2) = (  1.000000  1.000000  1.000000 )  
               b(3) = ( -1.000000  1.000000 -1.000000 )  


     PseudoPot. # 1 for Si read from file:
     /home/degennar/CODES/koopmans/src/koopmans/pseudopotentials/pseudo_dojo_standard_v0.4.1/lda/Si.upf
     MD5 check sum: 9e2d726316af3d4752eea8ab0afbb951
     Pseudo is Norm-conserving + core correction, Zval =  4.0
     Generated using ONCVPSP code by D. R. Hamann
     Using radial grid of 1510 points,  6 beta functions with: 
                l(1) =   0
                l(2) =   0
                l(3) =   1
                l(4) =   1
                l(5) =   2
                l(6) =   2

     atomic species   valence    mass     pseudopotential
        Si             4.00    28.08500     Si( 1.00)

     48 Sym. Ops., with inversion, found (24 have fractional translation)


                                    s                        frac. trans.

      isym =  1     identity                                     

 cryst.   s( 1) = (     1          0          0      )
                  (     0          1          0      )
                  (     0          0          1      )

 cart.    s( 1) = (  1.0000000  0.0000000  0.0000000 )
                  (  0.0000000  1.0000000  0.0000000 )
                  (  0.0000000  0.0000000  1.0000000 )


      isym =  2     180 deg rotation - cart. axis [0,0,1]        

 cryst.   s( 2) = (     0          1         -1      )
                  (     1          0         -1      )
                  (     0          0         -1      )

 cart.    s( 2) = ( -1.0000000  0.0000000  0.0000000 )
                  (  0.0000000 -1.0000000  0.0000000 )
                  (  0.0000000  0.0000000  1.0000000 )


      isym =  3     180 deg rotation - cart. axis [0,1,0]        

 cryst.   s( 3) = (    -1          0          0      )
                  (    -1          0          1      )
                  (    -1          1          0      )

 cart.    s( 3) = ( -1.0000000  0.0000000  0.0000000 )
                  (  0.0000000  1.0000000  0.0000000 )
                  (  0.0000000  0.0000000 -1.0000000 )


      isym =  4     180 deg rotation - cart. axis [1,0,0]        

 cryst.   s( 4) = (     0         -1          1      )
                  (     0         -1          0      )
                  (     1         -1          0      )

 cart.    s( 4) = (  1.0000000  0.0000000  0.0000000 )
                  (  0.0000000 -1.0000000  0.0000000 )
                  (  0.0000000  0.0000000 -1.0000000 )


      isym =  5     180 deg rotation - cart. axis [1,1,0]        

 cryst.   s( 5) = (     0         -1          0      )    f =( -0.2500000 )
                  (    -1          0          0      )       ( -0.2500000 )
                  (     0          0         -1      )       ( -0.2500000 )

 cart.    s( 5) = (  0.0000000  1.0000000  0.0000000 )    f =(  0.2500000 )
                  (  1.0000000  0.0000000  0.0000000 )       ( -0.2500000 )
                  (  0.0000000  0.0000000 -1.0000000 )       ( -0.2500000 )


      isym =  6     180 deg rotation - cart. axis [1,-1,0]       

 cryst.   s( 6) = (    -1          0          1      )    f =( -0.2500000 )
                  (     0         -1          1      )       ( -0.2500000 )
                  (     0          0          1      )       ( -0.2500000 )

 cart.    s( 6) = (  0.0000000 -1.0000000  0.0000000 )    f =(  0.2500000 )
                  ( -1.0000000  0.0000000  0.0000000 )       ( -0.2500000 )
                  (  0.0000000  0.0000000 -1.0000000 )       ( -0.2500000 )


      isym =  7      90 deg rotation - cart. axis [0,0,-1]       

 cryst.   s( 7) = (     0          1          0      )    f =( -0.2500000 )
                  (     0          1         -1      )       ( -0.2500000 )
                  (    -1          1          0      )       ( -0.2500000 )

 cart.    s( 7) = (  0.0000000  1.0000000  0.0000000 )    f =(  0.2500000 )
                  ( -1.0000000  0.0000000  0.0000000 )       ( -0.2500000 )
                  (  0.0000000  0.0000000  1.0000000 )       ( -0.2500000 )


      isym =  8      90 deg rotation - cart. axis [0,0,1]        

 cryst.   s( 8) = (     1          0         -1      )    f =( -0.2500000 )
                  (     1          0          0      )       ( -0.2500000 )
                  (     1         -1          0      )       ( -0.2500000 )

 cart.    s( 8) = (  0.0000000 -1.0000000  0.0000000 )    f =(  0.2500000 )
                  (  1.0000000  0.0000000  0.0000000 )       ( -0.2500000 )
                  (  0.0000000  0.0000000  1.0000000 )       ( -0.2500000 )


      isym =  9     180 deg rotation - cart. axis [1,0,1]        

 cryst.   s( 9) = (    -1          0          0      )    f =( -0.2500000 )
                  (     0          0         -1      )       ( -0.2500000 )
                  (     0         -1          0      )       ( -0.2500000 )

 cart.    s( 9) = (  0.0000000  0.0000000  1.0000000 )    f =(  0.2500000 )
                  (  0.0000000 -1.0000000  0.0000000 )       ( -0.2500000 )
                  (  1.0000000  0.0000000  0.0000000 )       ( -0.2500000 )


      isym = 10     180 deg rotation - cart. axis [-1,0,1]       

 cryst.   s(10) = (     1          0          0      )    f =( -0.2500000 )
                  (     1         -1          0      )       ( -0.2500000 )
                  (     1          0         -1      )       ( -0.2500000 )

 cart.    s(10) = (  0.0000000  0.0000000 -1.0000000 )    f =(  0.2500000 )
                  (  0.0000000 -1.0000000  0.0000000 )       ( -0.2500000 )
                  ( -1.0000000  0.0000000  0.0000000 )       ( -0.2500000 )


      isym = 11      90 deg rotation - cart. axis [0,1,0]        

 cryst.   s(11) = (     0          1         -1      )    f =( -0.2500000 )
                  (    -1          1          0      )       ( -0.2500000 )
                  (     0          1          0      )       ( -0.2500000 )

 cart.    s(11) = (  0.0000000  0.0000000  1.0000000 )    f =(  0.2500000 )
                  (  0.0000000  1.0000000  0.0000000 )       ( -0.2500000 )
                  ( -1.0000000  0.0000000  0.0000000 )       ( -0.2500000 )


      isym = 12      90 deg rotation - cart. axis [0,-1,0]       

 cryst.   s(12) = (     0         -1          1      )    f =( -0.2500000 )
                  (     0          0          1      )       ( -0.2500000 )
                  (    -1          0          1      )       ( -0.2500000 )

 cart.    s(12) = (  0.0000000  0.0000000 -1.0000000 )    f =(  0.2500000 )
                  (  0.0000000  1.0000000  0.0000000 )       ( -0.2500000 )
                  (  1.0000000  0.0000000  0.0000000 )       ( -0.2500000 )


      isym = 13     180 deg rotation - cart. axis [0,1,1]        

 cryst.   s(13) = (    -1          1          0      )    f =( -0.2500000 )
                  (     0          1          0      )       ( -0.2500000 )
                  (     0          1         -1      )       ( -0.2500000 )

 cart.    s(13) = ( -1.0000000  0.0000000  0.0000000 )    f =(  0.2500000 )
                  (  0.0000000  0.0000000  1.0000000 )       ( -0.2500000 )
                  (  0.0000000  1.0000000  0.0000000 )       ( -0.2500000 )


      isym = 14     180 deg rotation - cart. axis [0,1,-1]       

 cryst.   s(14) = (     0          0         -1      )    f =( -0.2500000 )
                  (     0         -1          0      )       ( -0.2500000 )
                  (    -1          0          0      )       ( -0.2500000 )

 cart.    s(14) = ( -1.0000000  0.0000000  0.0000000 )    f =(  0.2500000 )
                  (  0.0000000  0.0000000 -1.0000000 )       ( -0.2500000 )
                  (  0.0000000 -1.0000000  0.0000000 )       ( -0.2500000 )


      isym = 15      90 deg rotation - cart. axis [-1,0,0]       

 cryst.   s(15) = (     0          0          1      )    f =( -0.2500000 )
                  (    -1          0          1      )       ( -0.2500000 )
                  (     0         -1          1      )       ( -0.2500000 )

 cart.    s(15) = (  1.0000000  0.0000000  0.0000000 )    f =(  0.2500000 )
                  (  0.0000000  0.0000000  1.0000000 )       ( -0.2500000 )
                  (  0.0000000 -1.0000000  0.0000000 )       ( -0.2500000 )


      isym = 16      90 deg rotation - cart. axis [1,0,0]        

 cryst.   s(16) = (     1         -1          0      )    f =( -0.2500000 )
                  (     1          0         -1      )       ( -0.2500000 )
                  (     1          0          0      )       ( -0.2500000 )

 cart.    s(16) = (  1.0000000  0.0000000  0.0000000 )    f =(  0.2500000 )
                  (  0.0000000  0.0000000 -1.0000000 )       ( -0.2500000 )
                  (  0.0000000  1.0000000  0.0000000 )       ( -0.2500000 )


      isym = 17     120 deg rotation - cart. axis [-1,-1,-1]     

 cryst.   s(17) = (    -1          0          1      )
                  (    -1          1          0      )
                  (    -1          0          0      )

 cart.    s(17) = (  0.0000000  1.0000000  0.0000000 )
                  (  0.0000000  0.0000000  1.0000000 )
                  (  1.0000000  0.0000000  0.0000000 )


      isym = 18     120 deg rotation - cart. axis [-1,1,1]       

 cryst.   s(18) = (     0          1          0      )
                  (     0          0          1      )
                  (     1          0          0      )

 cart.    s(18) = (  0.0000000 -1.0000000  0.0000000 )
                  (  0.0000000  0.0000000  1.0000000 )
                  ( -1.0000000  0.0000000  0.0000000 )


      isym = 19     120 deg rotation - cart. axis [1,1,-1]       

 cryst.   s(19) = (     1          0         -1      )
                  (     0          0         -1      )
                  (     0          1         -1      )

 cart.    s(19) = (  0.0000000  1.0000000  0.0000000 )
                  (  0.0000000  0.0000000 -1.0000000 )
                  ( -1.0000000  0.0000000  0.0000000 )


      isym = 20     120 deg rotation - cart. axis [1,-1,1]       

 cryst.   s(20) = (     0         -1          0      )
                  (     1         -1          0      )
                  (     0         -1          1      )

 cart.    s(20) = (  0.0000000 -1.0000000  0.0000000 )
                  (  0.0000000  0.0000000 -1.0000000 )
                  (  1.0000000  0.0000000  0.0000000 )


      isym = 21     120 deg rotation - cart. axis [1,1,1]        

 cryst.   s(21) = (     0          0         -1      )
                  (     0          1         -1      )
                  (     1          0         -1      )

 cart.    s(21) = (  0.0000000  0.0000000  1.0000000 )
                  (  1.0000000  0.0000000  0.0000000 )
                  (  0.0000000  1.0000000  0.0000000 )


      isym = 22     120 deg rotation - cart. axis [-1,1,-1]      

 cryst.   s(22) = (    -1          1          0      )
                  (    -1          0          0      )
                  (    -1          0          1      )

 cart.    s(22) = (  0.0000000  0.0000000  1.0000000 )
                  ( -1.0000000  0.0000000  0.0000000 )
                  (  0.0000000 -1.0000000  0.0000000 )


      isym = 23     120 deg rotation - cart. axis [1,-1,-1]      

 cryst.   s(23) = (     0          0          1      )
                  (     1          0          0      )
                  (     0          1          0      )

 cart.    s(23) = (  0.0000000  0.0000000 -1.0000000 )
                  ( -1.0000000  0.0000000  0.0000000 )
                  (  0.0000000  1.0000000  0.0000000 )


      isym = 24     120 deg rotation - cart. axis [-1,-1,1]      

 cryst.   s(24) = (     1         -1          0      )
                  (     0         -1          1      )
                  (     0         -1          0      )

 cart.    s(24) = (  0.0000000  0.0000000 -1.0000000 )
                  (  1.0000000  0.0000000  0.0000000 )
                  (  0.0000000 -1.0000000  0.0000000 )


      isym = 25     inversion                                    

 cryst.   s(25) = (    -1          0          0      )    f =( -0.2500000 )
                  (     0         -1          0      )       ( -0.2500000 )
                  (     0          0         -1      )       ( -0.2500000 )

 cart.    s(25) = ( -1.0000000  0.0000000  0.0000000 )    f =(  0.2500000 )
                  (  0.0000000 -1.0000000  0.0000000 )       ( -0.2500000 )
                  (  0.0000000  0.0000000 -1.0000000 )       ( -0.2500000 )


      isym = 26     inv. 180 deg rotation - cart. axis [0,0,1]   

 cryst.   s(26) = (     0         -1          1      )    f =( -0.2500000 )
                  (    -1          0          1      )       ( -0.2500000 )
                  (     0          0          1      )       ( -0.2500000 )

 cart.    s(26) = (  1.0000000  0.0000000  0.0000000 )    f =(  0.2500000 )
                  (  0.0000000  1.0000000  0.0000000 )       ( -0.2500000 )
                  (  0.0000000  0.0000000 -1.0000000 )       ( -0.2500000 )


      isym = 27     inv. 180 deg rotation - cart. axis [0,1,0]   

 cryst.   s(27) = (     1          0          0      )    f =( -0.2500000 )
                  (     1          0         -1      )       ( -0.2500000 )
                  (     1         -1          0      )       ( -0.2500000 )

 cart.    s(27) = (  1.0000000  0.0000000  0.0000000 )    f =(  0.2500000 )
                  (  0.0000000 -1.0000000  0.0000000 )       ( -0.2500000 )
                  (  0.0000000  0.0000000  1.0000000 )       ( -0.2500000 )


      isym = 28     inv. 180 deg rotation - cart. axis [1,0,0]   

 cryst.   s(28) = (     0          1         -1      )    f =( -0.2500000 )
                  (     0          1          0      )       ( -0.2500000 )
                  (    -1          1          0      )       ( -0.2500000 )

 cart.    s(28) = ( -1.0000000  0.0000000  0.0000000 )    f =(  0.2500000 )
                  (  0.0000000  1.0000000  0.0000000 )       ( -0.2500000 )
                  (  0.0000000  0.0000000  1.0000000 )       ( -0.2500000 )


      isym = 29     inv. 180 deg rotation - cart. axis [1,1,0]   

 cryst.   s(29) = (     0          1          0      )
                  (     1          0          0      )
                  (     0          0          1      )

 cart.    s(29) = (  0.0000000 -1.0000000  0.0000000 )
                  ( -1.0000000  0.0000000  0.0000000 )
                  (  0.0000000  0.0000000  1.0000000 )


      isym = 30     inv. 180 deg rotation - cart. axis [1,-1,0]  

 cryst.   s(30) = (     1          0         -1      )
                  (     0          1         -1      )
                  (     0          0         -1      )

 cart.    s(30) = (  0.0000000  1.0000000  0.0000000 )
                  (  1.0000000  0.0000000  0.0000000 )
                  (  0.0000000  0.0000000  1.0000000 )


      isym = 31     inv.  90 deg rotation - cart. axis [0,0,-1]  

 cryst.   s(31) = (     0         -1          0      )
                  (     0         -1          1      )
                  (     1         -1          0      )

 cart.    s(31) = (  0.0000000 -1.0000000  0.0000000 )
                  (  1.0000000  0.0000000  0.0000000 )
                  (  0.0000000  0.0000000 -1.0000000 )


      isym = 32     inv.  90 deg rotation - cart. axis [0,0,1]   

 cryst.   s(32) = (    -1          0          1      )
                  (    -1          0          0      )
                  (    -1          1          0      )

 cart.    s(32) = (  0.0000000  1.0000000  0.0000000 )
                  ( -1.0000000  0.0000000  0.0000000 )
                  (  0.0000000  0.0000000 -1.0000000 )


      isym = 33     inv. 180 deg rotation - cart. axis [1,0,1]   

 cryst.   s(33) = (     1          0          0      )
                  (     0          0          1      )
                  (     0          1          0      )

 cart.    s(33) = (  0.0000000  0.0000000 -1.0000000 )
                  (  0.0000000  1.0000000  0.0000000 )
                  ( -1.0000000  0.0000000  0.0000000 )


      isym = 34     inv. 180 deg rotation - cart. axis [-1,0,1]  

 cryst.   s(34) = (    -1          0          0      )
                  (    -1          1          0      )
                  (    -1          0          1      )

 cart.    s(34) = (  0.0000000  0.0000000  1.0000000 )
                  (  0.0000000  1.0000000  0.0000000 )
                  (  1.0000000  0.0000000  0.0000000 )


      isym = 35     inv.  90 deg rotation - cart. axis [0,1,0]   

 cryst.   s(35) = (     0         -1          1      )
                  (     1         -1          0      )
                  (     0         -1          0      )

 cart.    s(35) = (  0.0000000  0.0000000 -1.0000000 )
                  (  0.0000000 -1.0000000  0.0000000 )
                  (  1.0000000  0.0000000  0.0000000 )


      isym = 36     inv.  90 deg rotation - cart. axis [0,-1,0]  

 cryst.   s(36) = (     0          1         -1      )
                  (     0          0         -1      )
                  (     1          0         -1      )

 cart.    s(36) = (  0.0000000  0.0000000  1.0000000 )
                  (  0.0000000 -1.0000000  0.0000000 )
                  ( -1.0000000  0.0000000  0.0000000 )


      isym = 37     inv. 180 deg rotation - cart. axis [0,1,1]   

 cryst.   s(37) = (     1         -1          0      )
                  (     0         -1          0      )
                  (     0         -1          1      )

 cart.    s(37) = (  1.0000000  0.0000000  0.0000000 )
                  (  0.0000000  0.0000000 -1.0000000 )
                  (  0.0000000 -1.0000000  0.0000000 )


      isym = 38     inv. 180 deg rotation - cart. axis [0,1,-1]  

 cryst.   s(38) = (     0          0          1      )
                  (     0          1          0      )
                  (     1          0          0      )

 cart.    s(38) = (  1.0000000  0.0000000  0.0000000 )
                  (  0.0000000  0.0000000  1.0000000 )
                  (  0.0000000  1.0000000  0.0000000 )


      isym = 39     inv.  90 deg rotation - cart. axis [-1,0,0]  

 cryst.   s(39) = (     0          0         -1      )
                  (     1          0         -1      )
                  (     0          1         -1      )

 cart.    s(39) = ( -1.0000000  0.0000000  0.0000000 )
                  (  0.0000000  0.0000000 -1.0000000 )
                  (  0.0000000  1.0000000  0.0000000 )


      isym = 40     inv.  90 deg rotation - cart. axis [1,0,0]   

 cryst.   s(40) = (    -1          1          0      )
                  (    -1          0          1      )
                  (    -1          0          0      )

 cart.    s(40) = ( -1.0000000  0.0000000  0.0000000 )
                  (  0.0000000  0.0000000  1.0000000 )
                  (  0.0000000 -1.0000000  0.0000000 )


      isym = 41     inv. 120 deg rotation - cart. axis [-1,-1,-1]

 cryst.   s(41) = (     1          0         -1      )    f =( -0.2500000 )
                  (     1         -1          0      )       ( -0.2500000 )
                  (     1          0          0      )       ( -0.2500000 )

 cart.    s(41) = (  0.0000000 -1.0000000  0.0000000 )    f =(  0.2500000 )
                  (  0.0000000  0.0000000 -1.0000000 )       ( -0.2500000 )
                  ( -1.0000000  0.0000000  0.0000000 )       ( -0.2500000 )


      isym = 42     inv. 120 deg rotation - cart. axis [-1,1,1]  

 cryst.   s(42) = (     0         -1          0      )    f =( -0.2500000 )
                  (     0          0         -1      )       ( -0.2500000 )
                  (    -1          0          0      )       ( -0.2500000 )

 cart.    s(42) = (  0.0000000  1.0000000  0.0000000 )    f =(  0.2500000 )
                  (  0.0000000  0.0000000 -1.0000000 )       ( -0.2500000 )
                  (  1.0000000  0.0000000  0.0000000 )       ( -0.2500000 )


      isym = 43     inv. 120 deg rotation - cart. axis [1,1,-1]  

 cryst.   s(43) = (    -1          0          1      )    f =( -0.2500000 )
                  (     0          0          1      )       ( -0.2500000 )
                  (     0         -1          1      )       ( -0.2500000 )

 cart.    s(43) = (  0.0000000 -1.0000000  0.0000000 )    f =(  0.2500000 )
                  (  0.0000000  0.0000000  1.0000000 )       ( -0.2500000 )
                  (  1.0000000  0.0000000  0.0000000 )       ( -0.2500000 )


      isym = 44     inv. 120 deg rotation - cart. axis [1,-1,1]  

 cryst.   s(44) = (     0          1          0      )    f =( -0.2500000 )
                  (    -1          1          0      )       ( -0.2500000 )
                  (     0          1         -1      )       ( -0.2500000 )

 cart.    s(44) = (  0.0000000  1.0000000  0.0000000 )    f =(  0.2500000 )
                  (  0.0000000  0.0000000  1.0000000 )       ( -0.2500000 )
                  ( -1.0000000  0.0000000  0.0000000 )       ( -0.2500000 )


      isym = 45     inv. 120 deg rotation - cart. axis [1,1,1]   

 cryst.   s(45) = (     0          0          1      )    f =( -0.2500000 )
                  (     0         -1          1      )       ( -0.2500000 )
                  (    -1          0          1      )       ( -0.2500000 )

 cart.    s(45) = (  0.0000000  0.0000000 -1.0000000 )    f =(  0.2500000 )
                  ( -1.0000000  0.0000000  0.0000000 )       ( -0.2500000 )
                  (  0.0000000 -1.0000000  0.0000000 )       ( -0.2500000 )


      isym = 46     inv. 120 deg rotation - cart. axis [-1,1,-1] 

 cryst.   s(46) = (     1         -1          0      )    f =( -0.2500000 )
                  (     1          0          0      )       ( -0.2500000 )
                  (     1          0         -1      )       ( -0.2500000 )

 cart.    s(46) = (  0.0000000  0.0000000 -1.0000000 )    f =(  0.2500000 )
                  (  1.0000000  0.0000000  0.0000000 )       ( -0.2500000 )
                  (  0.0000000  1.0000000  0.0000000 )       ( -0.2500000 )


      isym = 47     inv. 120 deg rotation - cart. axis [1,-1,-1] 

 cryst.   s(47) = (     0          0         -1      )    f =( -0.2500000 )
                  (    -1          0          0      )       ( -0.2500000 )
                  (     0         -1          0      )       ( -0.2500000 )

 cart.    s(47) = (  0.0000000  0.0000000  1.0000000 )    f =(  0.2500000 )
                  (  1.0000000  0.0000000  0.0000000 )       ( -0.2500000 )
                  (  0.0000000 -1.0000000  0.0000000 )       ( -0.2500000 )


      isym = 48     inv. 120 deg rotation - cart. axis [-1,-1,1] 

 cryst.   s(48) = (    -1          1          0      )    f =( -0.2500000 )
                  (     0          1         -1      )       ( -0.2500000 )
                  (     0          1          0      )       ( -0.2500000 )

 cart.    s(48) = (  0.0000000  0.0000000  1.0000000 )    f =(  0.2500000 )
                  ( -1.0000000  0.0000000  0.0000000 )       ( -0.2500000 )
                  (  0.0000000  1.0000000  0.0000000 )       ( -0.2500000 )


     point group O_h (m-3m) 
     there are 10 classes
     the character table:

       E     8C3   3C2   6C4   6C2'  i     8S6   3s_h  6S4   6s_d 
A_1g   1.00  1.00  1.00  1.00  1.00  1.00  1.00  1.00  1.00  1.00
A_2g   1.00  1.00  1.00 -1.00 -1.00  1.00  1.00  1.00 -1.00 -1.00
E_g    2.00 -1.00  2.00  0.00  0.00  2.00 -1.00  2.00  0.00  0.00
T_1g   3.00  0.00 -1.00  1.00 -1.00  3.00  0.00 -1.00  1.00 -1.00
T_2g   3.00  0.00 -1.00 -1.00  1.00  3.00  0.00 -1.00 -1.00  1.00
A_1u   1.00  1.00  1.00  1.00  1.00 -1.00 -1.00 -1.00 -1.00 -1.00
A_2u   1.00  1.00  1.00 -1.00 -1.00 -1.00 -1.00 -1.00  1.00  1.00
E_u    2.00 -1.00  2.00  0.00  0.00 -2.00  1.00 -2.00  0.00  0.00
T_1u   3.00  0.00 -1.00  1.00 -1.00 -3.00  0.00  1.00 -1.00  1.00
T_2u   3.00  0.00 -1.00 -1.00  1.00 -3.00  0.00  1.00  1.00 -1.00

     the symmetry operations in each class and the name of the first element:

     E        1
          identity                                               
     8C3     17   19   20   18   24   21   22   23
          120 deg rotation - cart. axis [-1,-1,-1]               
     3C2      2    4    3
          180 deg rotation - cart. axis [0,0,1]                  
     6C4      7    8   15   16   12   11
           90 deg rotation - cart. axis [0,0,-1]                 
     6C2'     5    6   14   13   10    9
          180 deg rotation - cart. axis [1,1,0]                  
     i       25
          inversion                                              
     8S6     41   43   44   42   48   45   46   47
          inv. 120 deg rotation - cart. axis [-1,-1,-1]          
     3s_h    26   28   27
          inv. 180 deg rotation - cart. axis [0,0,1]             
     6S4     31   32   39   40   36   35
          inv.  90 deg rotation - cart. axis [0,0,-1]            
     6s_d    29   30   38   37   34   33
          inv. 180 deg rotation - cart. axis [1,1,0]             

   Cartesian axes

     site n.     atom                  positions (alat units)
         1           Si  tau(   1) = (   0.0000000   0.0000000   0.0000000  )
         2           Si  tau(   2) = (  -0.2500000   0.2500000   0.2500000  )

   Crystallographic axes

     site n.     atom                  positions (cryst. coord.)
         1           Si  tau(   1) = (  0.0000000  0.0000000  0.0000000  )
         2           Si  tau(   2) = (  0.2500000  0.2500000  0.2500000  )

     number of k points=    43
                       cart. coord. in units 2pi/alat
        k(    1) = (  -0.5000000   0.5000000   0.5000000), wk =   0.0465116
        k(    2) = (  -0.4444444   0.4444444   0.4444444), wk =   0.0465116
        k(    3) = (  -0.3888889   0.3888889   0.3888889), wk =   0.0465116
        k(    4) = (  -0.3333333   0.3333333   0.3333333), wk =   0.0465116
        k(    5) = (  -0.2777778   0.2777778   0.2777778), wk =   0.0465116
        k(    6) = (  -0.2222222   0.2222222   0.2222222), wk =   0.0465116
        k(    7) = (  -0.1666667   0.1666667   0.1666667), wk =   0.0465116
        k(    8) = (  -0.1111111   0.1111111   0.1111111), wk =   0.0465116
        k(    9) = (  -0.0555556   0.0555556   0.0555556), wk =   0.0465116
        k(   10) = (   0.0000000   0.0000000   0.0000000), wk =   0.0465116
        k(   11) = (  -0.0909091   0.0000000   0.0000000), wk =   0.0465116
        k(   12) = (  -0.1818182   0.0000000   0.0000000), wk =   0.0465116
        k(   13) = (  -0.2727273   0.0000000   0.0000000), wk =   0.0465116
        k(   14) = (  -0.3636364   0.0000000   0.0000000), wk =   0.0465116
        k(   15) = (  -0.4545455   0.0000000   0.0000000), wk =   0.0465116
        k(   16) = (  -0.5454545   0.0000000   0.0000000), wk =   0.0465116
        k(   17) = (  -0.6363636   0.0000000   0.0000000), wk =   0.0465116
        k(   18) = (  -0.7272727   0.0000000   0.0000000), wk =   0.0465116
        k(   19) = (  -0.8181818   0.0000000   0.0000000), wk =   0.0465116
        k(   20) = (  -0.9090909   0.0000000   0.0000000), wk =   0.0465116
        k(   21) = (  -1.0000000   0.0000000   0.0000000), wk =   0.0465116
        k(   22) = (  -0.9722222   0.0833333  -0.0000000), wk =   0.0465116
        k(   23) = (  -0.9444444   0.1666667  -0.0000000), wk =   0.0465116
        k(   24) = (  -0.9166667   0.2500000   0.0000000), wk =   0.0465116
        k(   25) = (  -0.8888889   0.3333333  -0.0000000), wk =   0.0465116
        k(   26) = (  -0.8611111   0.4166667   0.0000000), wk =   0.0465116
        k(   27) = (  -0.8333333   0.5000000   0.0000000), wk =   0.0465116
        k(   28) = (  -0.8055556   0.5833333   0.0000000), wk =   0.0465116
        k(   29) = (  -0.7777778   0.6666667   0.0000000), wk =   0.0465116
        k(   30) = (  -0.7500000   0.7500000   0.0000000), wk =   0.0465116
        k(   31) = (  -0.6923077   0.6923077   0.0000000), wk =   0.0465116
        k(   32) = (  -0.6346154   0.6346154   0.0000000), wk =   0.0465116
        k(   33) = (  -0.5769231   0.5769231   0.0000000), wk =   0.0465116
        k(   34) = (  -0.5192308   0.5192308  -0.0000000), wk =   0.0465116
        k(   35) = (  -0.4615385   0.4615385   0.0000000), wk =   0.0465116
        k(   36) = (  -0.4038462   0.4038462   0.0000000), wk =   0.0465116
        k(   37) = (  -0.3461538   0.3461538  -0.0000000), wk =   0.0465116
        k(   38) = (  -0.2884615   0.2884615   0.0000000), wk =   0.0465116
        k(   39) = (  -0.2307692   0.2307692   0.0000000), wk =   0.0465116
        k(   40) = (  -0.1730769   0.1730769   0.0000000), wk =   0.0465116
        k(   41) = (  -0.1153846   0.1153846   0.0000000), wk =   0.0465116
        k(   42) = (  -0.0576923   0.0576923  -0.0000000), wk =   0.0465116
        k(   43) = (   0.0000000   0.0000000   0.0000000), wk =   0.0465116

                       cryst. coord.
        k(    1) = (   0.5000000   0.5000000   0.5000000), wk =   0.0465116
        k(    2) = (   0.4444444   0.4444444   0.4444444), wk =   0.0465116
        k(    3) = (   0.3888889   0.3888889   0.3888889), wk =   0.0465116
        k(    4) = (   0.3333333   0.3333333   0.3333333), wk =   0.0465116
        k(    5) = (   0.2777778   0.2777778   0.2777778), wk =   0.0465116
        k(    6) = (   0.2222222   0.2222222   0.2222222), wk =   0.0465116
        k(    7) = (   0.1666667   0.1666667   0.1666667), wk =   0.0465116
        k(    8) = (   0.1111111   0.1111111   0.1111111), wk =   0.0465116
        k(    9) = (   0.0555556   0.0555556   0.0555556), wk =   0.0465116
        k(   10) = (   0.0000000   0.0000000   0.0000000), wk =   0.0465116
        k(   11) = (   0.0454545   0.0000000   0.0454545), wk =   0.0465116
        k(   12) = (   0.0909091   0.0000000   0.0909091), wk =   0.0465116
        k(   13) = (   0.1363636   0.0000000   0.1363636), wk =   0.0465116
        k(   14) = (   0.1818182   0.0000000   0.1818182), wk =   0.0465116
        k(   15) = (   0.2272727   0.0000000   0.2272727), wk =   0.0465116
        k(   16) = (   0.2727273   0.0000000   0.2727273), wk =   0.0465116
        k(   17) = (   0.3181818   0.0000000   0.3181818), wk =   0.0465116
        k(   18) = (   0.3636364   0.0000000   0.3636364), wk =   0.0465116
        k(   19) = (   0.4090909   0.0000000   0.4090909), wk =   0.0465116
        k(   20) = (   0.4545455   0.0000000   0.4545455), wk =   0.0465116
        k(   21) = (   0.5000000   0.0000000   0.5000000), wk =   0.0465116
        k(   22) = (   0.4861111   0.0416667   0.5277778), wk =   0.0465116
        k(   23) = (   0.4722222   0.0833333   0.5555556), wk =   0.0465116
        k(   24) = (   0.4583333   0.1250000   0.5833333), wk =   0.0465116
        k(   25) = (   0.4444444   0.1666667   0.6111111), wk =   0.0465116
        k(   26) = (   0.4305556   0.2083333   0.6388889), wk =   0.0465116
        k(   27) = (   0.4166667   0.2500000   0.6666667), wk =   0.0465116
        k(   28) = (   0.4027778   0.2916667   0.6944444), wk =   0.0465116
        k(   29) = (   0.3888889   0.3333333   0.7222222), wk =   0.0465116
        k(   30) = (   0.3750000   0.3750000   0.7500000), wk =   0.0465116
        k(   31) = (   0.3461538   0.3461538   0.6923077), wk =   0.0465116
        k(   32) = (   0.3173077   0.3173077   0.6346154), wk =   0.0465116
        k(   33) = (   0.2884615   0.2884615   0.5769231), wk =   0.0465116
        k(   34) = (   0.2596154   0.2596154   0.5192308), wk =   0.0465116
        k(   35) = (   0.2307692   0.2307692   0.4615385), wk =   0.0465116
        k(   36) = (   0.2019231   0.2019231   0.4038462), wk =   0.0465116
        k(   37) = (   0.1730769   0.1730769   0.3461538), wk =   0.0465116
        k(   38) = (   0.1442308   0.1442308   0.2884615), wk =   0.0465116
        k(   39) = (   0.1153846   0.1153846   0.2307692), wk =   0.0465116
        k(   40) = (   0.0865385   0.0865385   0.1730769), wk =   0.0465116
        k(   41) = (   0.0576923   0.0576923   0.1153846), wk =   0.0465116
        k(   42) = (   0.0288462   0.0288462   0.0576923), wk =   0.0465116
        k(   43) = (   0.0000000   0.0000000   0.0000000), wk =   0.0465116

     Dense  grid:     3287 G-vectors     FFT dimensions: (  24,  24,  24)

     Dynamical RAM for                 wfc:       0.02 MB

     Dynamical RAM for     wfc (w. buffer):       0.02 MB

     Dynamical RAM for           str. fact:       0.01 MB

     Dynamical RAM for           local pot:       0.00 MB

     Dynamical RAM for          nlocal pot:       0.04 MB

     Dynamical RAM for                qrad:       0.72 MB

     Dynamical RAM for          rho,v,vnew:       0.08 MB

     Dynamical RAM for           G-vectors:       0.04 MB

     Dynamical RAM for          h,s,v(r/c):       0.07 MB

     Dynamical RAM for          <psi|beta>:       0.01 MB

     Dynamical RAM for                 psi:       0.04 MB

     Dynamical RAM for                hpsi:       0.04 MB

     Dynamical RAM for      wfcinit/wfcrot:       0.05 MB

     Estimated static dynamical RAM per process >       1.00 MB

     Estimated max dynamical RAM per process >       1.17 MB

     Estimated total dynamical RAM >      28.11 MB

     The potential is recalculated from file :
     /home/degennar/CODES/hubbard-koopmans-2022/Day3/exercise2/postproc/TMP/kc_bands.save/charge-density

     Starting wfcs are    8 randomized atomic wfcs +   12 random wfcs

     Band Structure Calculation
     Davidson diagonalization with overlap

     Computing kpt #:     1  of    11 on this pool
     total cpu time spent up to now is        0.7 secs

     Computing kpt #:     2  of    11 on this pool
     total cpu time spent up to now is        0.7 secs

     Computing kpt #:     3  of    11 on this pool
     total cpu time spent up to now is        0.7 secs

     Computing kpt #:     4  of    11 on this pool
     total cpu time spent up to now is        0.8 secs

     Computing kpt #:     5  of    11 on this pool
     total cpu time spent up to now is        0.8 secs

     Computing kpt #:     6  of    11 on this pool
     total cpu time spent up to now is        0.9 secs

     Computing kpt #:     7  of    11 on this pool
     total cpu time spent up to now is        0.9 secs

     Computing kpt #:     8  of    11 on this pool
     total cpu time spent up to now is        0.9 secs

     Computing kpt #:     9  of    11 on this pool
     total cpu time spent up to now is        1.0 secs

     Computing kpt #:    10  of    11 on this pool
     total cpu time spent up to now is        1.0 secs

     Computing kpt #:    11  of    11 on this pool
     total cpu time spent up to now is        1.0 secs

     ethr =  2.00E-10,  avg # of iterations = 32.5

     total cpu time spent up to now is        1.1 secs

     End of band structure calculation

          k =-0.5000 0.5000 0.5000 (   410 PWs)   bands (ev):

    -3.3359  -0.7597   5.1119   5.1119   7.6808   9.4961   9.4961  13.6106
    16.8448  16.8448  17.4097  17.5121  17.5121  19.0440  25.5792  26.0356
    27.7442  27.7442  28.0449  28.0449

          k =-0.4444 0.4444 0.4444 (   407 PWs)   bands (ev):

    -3.5053  -0.5130   5.1343   5.1343   7.7063   9.5233   9.5233  13.6529
    16.0134  16.0134  16.8791  18.4435  18.4435  19.5226  24.1543  26.4264
    26.4264  27.6022  29.1920  29.1920

          k =-0.3889 0.3889 0.3889 (   413 PWs)   bands (ev):

    -3.8863   0.0973   5.2007   5.2007   7.7757   9.5948   9.5948  13.7631
    15.0333  15.0333  15.9665  19.6899  19.6899  20.0640  22.9568  24.9801
    24.9801  29.0305  29.7272  30.0203

          k =-0.3333 0.3333 0.3333 (   407 PWs)   bands (ev):

    -4.3148   0.9068   5.3115   5.3115   7.9001   9.6798   9.6798  13.8366
    14.2061  14.2061  15.1276  19.5888  20.8694  20.8694  22.9731  23.7503
    23.7503  27.7313  30.3630  30.3630

          k =-0.2778 0.2778 0.2778 (   407 PWs)   bands (ev):

    -4.7174   1.8344   5.4642   5.4642   8.0710   9.7165   9.7165  13.4438
    13.5991  13.5991  14.8202  18.4127  21.1840  21.1840  23.5396  23.5396
    23.7553  26.3921  30.3999  30.3999

          k =-0.2222 0.2222 0.2222 (   398 PWs)   bands (ev):

    -5.0637   2.8414   5.6547   5.6547   8.2812   9.6345   9.6345  12.5833
    13.2952  13.2952  14.9855  17.2638  20.2834  20.2834  24.0645  24.7034
    24.7034  25.8635  30.3315  30.3315

          k =-0.1667 0.1667 0.1667 (   396 PWs)   bands (ev):

    -5.3406   3.8949   5.8727   5.8727   8.5052   9.4074   9.4074  11.6129
    13.3047  13.3047  14.9722  16.6007  19.2112  19.2112  23.1825  26.2026
    26.2026  26.6996  30.2387  30.2387

          k =-0.1111 0.1111 0.1111 (   402 PWs)   bands (ev):

    -5.5419   4.9503   6.0939   6.0939   8.7098   9.1048   9.1048  10.6383
    13.5382  13.5382  14.4735  16.7133  18.2426  18.2426  22.1889  27.6978
    27.6978  27.8330  30.1703  30.1703

          k =-0.0556 0.0556 0.0556 (   411 PWs)   bands (ev):

    -5.6640   5.8905   6.2734   6.2734   8.8026   8.8444   8.8444   9.8117
    13.8434  13.8434  13.9845  17.0624  17.5201  17.5201  21.4273  28.8563
    28.9348  28.9348  30.2711  30.2711

          k = 0.0000 0.0000 0.0000 (   411 PWs)   bands (ev):

    -5.7048   6.3461   6.3461   6.3461   8.7403   8.7403   8.7403   9.4979
    13.7993  13.9951  13.9951  17.2352  17.2352  17.2352  21.1283  29.3791
    29.3791  29.3791  30.5408  30.5408

          k =-0.0909 0.0000 0.0000 (   411 PWs)   bands (ev):

    -5.6684   6.1023   6.1865   6.1865   8.6453   8.9442   8.9442   9.7334
    13.6878  13.9655  14.0353  17.3000  17.3000  17.4443  21.4065  28.8295
    28.8295  29.4235  30.1025  30.1791

          k =-0.1818 0.0000 0.0000 (   399 PWs)   bands (ev):

    -5.5590   5.5213   5.8180   5.8180   8.3957   9.4469   9.4469  10.2466
    13.0573  14.1633  14.4279  17.4941  17.4941  17.8809  22.1985  27.7267
    27.7267  29.0876  29.4814  29.5599

          k =-0.2727 0.0000 0.0000 (   399 PWs)   bands (ev):

    -5.3780   4.7951   5.3842   5.3842   8.0628  10.0989  10.0989  10.5793
    12.6384  14.3661  15.1098  17.8135  17.8135  18.3520  23.3777  26.4864
    26.4864  27.8605  28.6468  29.7930

          k =-0.3636 0.0000 0.0000 (   407 PWs)   bands (ev):

    -5.1260   4.0107   4.9554   4.9554   7.7100  10.2493  10.8263  10.8263
    12.9727  14.6464  15.9413  18.2499  18.2499  18.8524  24.7854  25.2394
    25.2394  26.5511  27.7747  30.1424

          k =-0.4545 0.0000 0.0000 (   415 PWs)   bands (ev):

    -4.8036   3.2019   4.5620   4.5620   7.3770   9.5670  11.5985  11.5985
    13.7690  15.0063  16.8668  18.7874  18.7874  19.4102  24.0659  24.0659
    25.2816  26.2687  26.9087  30.6853

          k =-0.5455 0.0000 0.0000 (   415 PWs)   bands (ev):

    -4.4123   2.3839   4.2176   4.2176   7.0906   8.8667  12.4000  12.4000
    14.7003  15.4461  17.8295  19.3581  19.3581  20.0695  23.0460  23.0460
    24.0519  26.1003  27.6682  31.5026

          k =-0.6364 0.0000 0.0000 (   419 PWs)   bands (ev):

    -3.9548   1.5646   3.9297   3.9297   6.8643   8.2380  13.2163  13.2163
    15.6652  15.9640  18.7483  19.7180  19.7180  20.8435  22.4221  22.4221
    22.8724  25.4197  28.8273  31.1385

          k =-0.7273 0.0000 0.0000 (   420 PWs)   bands (ev):

    -3.4339   0.7552   3.7024   3.7024   6.7115   7.7100  14.0531  14.0531
    16.5618  16.6173  19.4407  19.4407  19.4768  21.7431  21.7578  22.6235
    22.6235  24.9992  29.6906  29.8330

          k =-0.8182 0.0000 0.0000 (   416 PWs)   bands (ev):

    -2.8530  -0.0364   3.5385   3.5385   6.6402   7.2924  14.9007  14.9007
    17.2377  17.5294  18.6925  18.6925  19.8055  20.7102  22.7772  23.4808
    23.4808  25.0128  28.4793  28.9881

          k =-0.9091 0.0000 0.0000 (   412 PWs)   bands (ev):

    -2.2167  -0.8006   3.4397   3.4397   6.6572   6.9776  15.7276  15.7276
    17.8552  17.8552  18.0056  18.3730  19.6371  19.7401  23.8988  24.6238
    24.6238  25.3405  27.3758  27.4836

          k =-1.0000 0.0000 0.0000 (   412 PWs)   bands (ev):

    -1.5302  -1.5302   3.4067   3.4067   6.7679   6.7679  16.2519  16.2519
    17.3253  17.3253  18.8353  18.8353  19.1053  19.1053  24.9632  24.9632
    25.6648  25.6648  26.3291  26.3291

          k =-0.9722 0.0833-0.0000 (   411 PWs)   bands (ev):

    -1.7323  -1.3030   3.3075   3.3171   6.9011   6.9938  15.7800  16.0320
    16.9495  17.2185  18.6960  19.1929  19.3715  19.8210  24.2226  24.8838
    25.3113  25.7608  26.6192  26.8315

          k =-0.9444 0.1667-0.0000 (   411 PWs)   bands (ev):

    -1.8987  -1.0679   3.0544   3.1205   7.3470   7.5092  14.6077  15.5153
    16.3991  17.3682  18.5301  19.4763  20.1521  21.1251  23.2253  24.4543
    24.9022  25.9626  27.0600  27.1502

          k =-0.9167 0.2500 0.0000 (   411 PWs)   bands (ev):

    -2.0243  -0.8517   2.7391   2.9343   8.0070   8.2203  13.2929  14.7722
    15.9998  17.4992  18.4640  19.7662  20.9819  22.3707  22.4474  23.9284
    24.7901  26.1338  27.3051  27.5096

          k =-0.8889 0.3333-0.0000 (   407 PWs)   bands (ev):

    -2.1072  -0.6897   2.4302   2.8488   8.8070   9.0599  11.9937  13.9545
    15.6753  17.3636  18.6442  20.0649  21.4296  22.0985  23.0254  24.1170
    24.9335  26.3172  27.2566  27.2670

          k =-0.8611 0.4167 0.0000 (   404 PWs)   bands (ev):

    -2.1481  -0.6116   2.1661   2.9158   9.6983   9.9217  10.8260  13.1491
    15.3618  16.9787  19.0198  20.3606  21.1216  22.7437  22.7975  24.6587
    25.7400  26.2357  26.5513  26.8029

          k =-0.8333 0.5000 0.0000 (   406 PWs)   bands (ev):

    -2.1484  -0.6231   1.9679   3.1368   9.4599  10.6358  11.1477  12.4034
    15.0347  16.4410  19.4805  20.6635  20.9471  22.4936  23.5074  24.9485
    25.1014  25.9235  26.8281  26.9372

          k =-0.8056 0.5833 0.0000 (   408 PWs)   bands (ev):

    -2.1109  -0.7005   1.8483   3.4575   8.4548  11.3059  12.0213  12.2148
    14.6952  15.8280  19.9745  20.9870  20.9892  22.3263  23.4850  24.6489
    24.8529  25.4241  27.1689  27.9003

          k =-0.7778 0.6667 0.0000 (   410 PWs)   bands (ev):

    -2.0375  -0.8136   1.8148   3.7594   7.6579  10.8559  12.8349  13.3536
    14.3598  15.2044  20.4515  21.2138  21.3675  22.1556  22.4347  23.9597
    25.2513  25.7759  27.5228  28.1599

          k =-0.7500 0.7500 0.0000 (   409 PWs)   bands (ev):

    -1.9295  -0.9409   1.8707   3.8432   7.2744  10.2724  13.6506  14.2286
    14.3539  14.7685  20.7510  21.2595  21.7155  21.8362  21.8627  23.2790
    25.9295  25.9987  27.5794  27.6477

          k =-0.6923 0.6923 0.0000 (   403 PWs)   bands (ev):

    -2.2363  -0.6386   1.7531   4.0578   7.5239  11.4627  12.9573  13.5297
    13.7903  14.1574  20.6492  21.1949  21.6990  21.8370  22.5247  24.2778
    24.5135  26.0153  28.3621  28.4931

          k =-0.6346 0.6346 0.0000 (   403 PWs)   bands (ev):

    -2.6238  -0.2756   1.8084   4.3064   7.8126  12.3038  12.3973  13.1875
    13.2597  13.6098  20.0608  20.5381  21.9404  22.3723  23.2175  23.2827
    24.7921  26.1028  28.3722  29.2129

          k =-0.5769 0.5769 0.0000 (   407 PWs)   bands (ev):

    -3.0555   0.1472   2.0069   4.5815   8.1297  11.6983  12.0503  12.7785
    13.1382  14.1941  19.4417  19.9611  21.2191  22.8674  22.9719  24.0021
    24.1458  26.7290  28.7711  29.3517

          k =-0.5192 0.5192-0.0000 (   411 PWs)   bands (ev):

    -3.4969   0.6294   2.3172   4.8732   8.4581  11.1446  11.5072  12.3662
    12.7529  15.4001  18.8539  19.5337  19.8801  23.0736  23.2874  23.4166
    24.6973  27.3286  28.1825  29.7011

          k =-0.4615 0.4615 0.0000 (   409 PWs)   bands (ev):

    -3.9236   1.1704   2.7146   5.1693   8.7697  10.6456  10.9979  12.0489
    12.4725  16.3637  18.2171  18.6278  19.4413  21.9346  23.5285  23.9352
    25.3853  27.0808  27.8173  29.6923

          k =-0.4038 0.4038 0.0000 (   409 PWs)   bands (ev):

    -4.3201   1.7672   3.1799   5.4542   9.0257  10.2027  10.5370  11.8497
    12.3091  16.7140  17.0783  17.9997  19.9206  20.9471  23.2728  24.4384
    26.0713  26.5103  28.2604  28.3441

          k =-0.3462 0.3462-0.0000 (   397 PWs)   bands (ev):

    -4.6750   2.4181   3.6974   5.7125   9.1856   9.8187  10.1309  11.7784
    12.2820  15.8637  16.5090  17.6180  19.6262  21.4416  22.4522  24.7951
    26.6210  26.7804  27.2555  28.6964

          k =-0.2885 0.2885 0.0000 (   395 PWs)   bands (ev):

    -4.9834   3.1171   4.2494   5.9293   9.2340   9.4914   9.7724  11.7663
    12.3891  14.7961  16.0457  17.3339  18.8294  21.3635  22.8656  24.5554
    26.8607  27.0667  27.4976  29.0997

          k =-0.2308 0.2308 0.0000 (   399 PWs)   bands (ev):

    -5.2403   3.8571   4.8155   6.0973   9.1986   9.2217   9.4592  11.6046
    12.6294  14.0553  15.4622  17.1496  18.1907  20.2374  23.7176  24.4297
    27.1960  27.6364  28.2143  29.4647

          k =-0.1731 0.1731 0.0000 (   403 PWs)   bands (ev):

    -5.4424   4.6236   5.3658   6.2157   9.0120   9.1200   9.1900  11.0751
    12.9887  13.8060  14.8500  17.0730  17.7402  19.1644  22.7717  26.0292
    27.7983  28.2433  28.9246  29.7887

          k =-0.1154 0.1154 0.0000 (   405 PWs)   bands (ev):

    -5.5876   5.3845   5.8546   6.2920   8.8614   8.9673   9.0164  10.3359
    13.4171  13.8520  14.3082  17.1012  17.4514  18.2238  21.9394  27.5811
    28.4817  28.8095  29.6224  30.0559

          k =-0.0577 0.0577-0.0000 (   411 PWs)   bands (ev):

    -5.6755   6.0441   6.2111   6.3331   8.7703   8.8036   8.8667   9.7162
    13.8141  13.9336  13.9522  17.1868  17.2878  17.5167  21.3479  28.8584
    29.0899  29.2225  30.2363  30.3138

          k = 0.0000 0.0000 0.0000 (   411 PWs)   bands (ev):

    -5.7048   6.3461   6.3461   6.3461   8.7403   8.7403   8.7403   9.4979
    13.7993  13.9951  13.9951  17.2352  17.2352  17.2352  21.1283  29.3791
    29.3791  29.3791  30.5408  30.5408

     Writing all to output data dir /home/degennar/CODES/hubbard-koopmans-2022/Day3/exercise2/postproc/TMP/kc_bands.save/
 
     init_run     :      0.03s CPU      0.04s WALL (       1 calls)
     electrons    :      0.40s CPU      0.43s WALL (       1 calls)

     Called by init_run:
     wfcinit      :      0.00s CPU      0.00s WALL (       1 calls)
     wfcinit:atom :      0.00s CPU      0.00s WALL (      11 calls)
     wfcinit:wfcr :      0.01s CPU      0.01s WALL (      11 calls)
     potinit      :      0.02s CPU      0.02s WALL (       1 calls)
     hinit0       :      0.00s CPU      0.00s WALL (       1 calls)

     Called by electrons:
     c_bands      :      0.40s CPU      0.42s WALL (       1 calls)
     v_of_rho     :      0.00s CPU      0.00s WALL (       1 calls)
     v_h          :      0.00s CPU      0.00s WALL (       1 calls)
     v_xc         :      0.00s CPU      0.00s WALL (       1 calls)

     Called by c_bands:
     init_us_2    :      0.00s CPU      0.00s WALL (      11 calls)
     init_us_2:cp :      0.00s CPU      0.00s WALL (      11 calls)
     cegterg      :      0.32s CPU      0.34s WALL (      22 calls)

     Called by sum_band:

     Called by *egterg:
     cdiaghg      :      0.16s CPU      0.17s WALL (     355 calls)
     cegterg:over :      0.01s CPU      0.01s WALL (     344 calls)
     cegterg:upda :      0.00s CPU      0.00s WALL (     344 calls)
     cegterg:last :      0.00s CPU      0.00s WALL (     219 calls)
     h_psi        :      0.14s CPU      0.15s WALL (     377 calls)
     g_psi        :      0.00s CPU      0.00s WALL (     344 calls)

     Called by h_psi:
     h_psi:calbec :      0.01s CPU      0.01s WALL (     377 calls)
     vloc_psi     :      0.13s CPU      0.14s WALL (     377 calls)
     add_vuspsi   :      0.00s CPU      0.00s WALL (     377 calls)

     General routines
     calbec       :      0.01s CPU      0.01s WALL (     377 calls)
     fft          :      0.00s CPU      0.00s WALL (       4 calls)
     fftw         :      0.11s CPU      0.12s WALL (    8800 calls)
     davcio       :      0.00s CPU      0.00s WALL (      22 calls)
 
     Parallel routines
 
     PWSCF        :      1.01s CPU      1.07s WALL

 
   This run was terminated on:  16: 7:13  31Oct2022            

=------------------------------------------------------------------------------=
   JOB DONE.
=------------------------------------------------------------------------------=
