
     Program PWSCF v.7.1 starts on 17Oct2022 at 14:19:28 

     This program is part of the open-source Quantum ESPRESSO suite
     for quantum simulation of materials; please cite
         "P. Giannozzi et al., J. Phys.:Condens. Matter 21 395502 (2009);
         "P. Giannozzi et al., J. Phys.:Condens. Matter 29 465901 (2017);
         "P. Giannozzi et al., J. Chem. Phys. 152 154105 (2020);
          URL http://www.quantum-espresso.org", 
     in publications or presentations arising from this work. More details at
     http://www.quantum-espresso.org/quote

     Parallel version (MPI), running on     4 processors

     MPI processes distributed on     1 nodes
     506 MiB available memory on the printing compute node when the environment starts
 
     Reading input from nscf.pwi
Warning: card &IONS ignored
Warning: card / ignored
Warning: card &CELL ignored
Warning: card / ignored

     Current dimensions of program PWSCF are:
     Max number of different atomic species (ntypx) = 10
     Max number of k-points (npk) =  40000
     Max angular momentum in pseudopotentials (lmaxx) =  4

     Atomic positions and unit cell read from directory:
     /home/nicola/Scrivania/CODES/git/hubbard-koopmans-2022/Day3/2_Si_kcp/postproc/wannier/TMP/kc.save/
     Atomic positions from file used, from input discarded
 
 
     R & G space division:  proc/nbgrp/npool/nimage =       4
     Subspace diagonalization in iterative solution of the eigenvalue problem:
     a serial algorithm will be used

 
     Parallelization info
     --------------------
     sticks:   dense  smooth     PW     G-vecs:    dense   smooth      PW
     Min          73      73     27                  821      821     181
     Max          74      74     28                  823      823     182
     Sum         295     295    109                 3287     3287     725
 
     Using Slab Decomposition
 


     bravais-lattice index     =            2
     lattice parameter (alat)  =      10.2622  a.u.
     unit-cell volume          =     270.1851 (a.u.)^3
     number of atoms/cell      =            2
     number of atomic types    =            1
     number of electrons       =         8.00
     number of Kohn-Sham states=           20
     kinetic-energy cutoff     =      20.0000  Ry
     charge density cutoff     =      80.0000  Ry
     Exchange-correlation= SLA  PW   NOGX NOGC
                           (   1   4   0   0   0   0   0)

     celldm(1)=  10.262200  celldm(2)=   0.000000  celldm(3)=   0.000000
     celldm(4)=   0.000000  celldm(5)=   0.000000  celldm(6)=   0.000000

     crystal axes: (cart. coord. in units of alat)
               a(1) = (  -0.500000   0.000000   0.500000 )  
               a(2) = (   0.000000   0.500000   0.500000 )  
               a(3) = (  -0.500000   0.500000   0.000000 )  

     reciprocal axes: (cart. coord. in units 2 pi/alat)
               b(1) = ( -1.000000 -1.000000  1.000000 )  
               b(2) = (  1.000000  1.000000  1.000000 )  
               b(3) = ( -1.000000  1.000000 -1.000000 )  


     PseudoPot. # 1 for Si read from file:
     /home/nicola/Scrivania/CODES/git/koopmans/pseudos/pseudo_dojo_standard_v0.4.1/lda/Si.upf
     MD5 check sum: 9e2d726316af3d4752eea8ab0afbb951
     Pseudo is Norm-conserving + core correction, Zval =  4.0
     Generated using ONCVPSP code by D. R. Hamann
     Using radial grid of 1510 points,  6 beta functions with: 
                l(1) =   0
                l(2) =   0
                l(3) =   1
                l(4) =   1
                l(5) =   2
                l(6) =   2

     atomic species   valence    mass     pseudopotential
        Si             4.00    28.08500     Si( 1.00)

     No symmetry found


                                    s                        frac. trans.

      isym =  1     identity                                     

 cryst.   s( 1) = (     1          0          0      )
                  (     0          1          0      )
                  (     0          0          1      )

 cart.    s( 1) = (  1.0000000  0.0000000  0.0000000 )
                  (  0.0000000  1.0000000  0.0000000 )
                  (  0.0000000  0.0000000  1.0000000 )


     point group C_1 (1)    
     there are  1 classes
     the character table:

       E    
A      1.00

     the symmetry operations in each class and the name of the first element:

     E        1
          identity                                               

   Cartesian axes

     site n.     atom                  positions (alat units)
         1           Si  tau(   1) = (   0.0000000   0.0000000   0.0000000  )
         2           Si  tau(   2) = (  -0.2500000   0.2500000   0.2500000  )

   Crystallographic axes

     site n.     atom                  positions (cryst. coord.)
         1           Si  tau(   1) = (  0.0000000  0.0000000  0.0000000  )
         2           Si  tau(   2) = (  0.2500000  0.2500000  0.2500000  )

     number of k points=   512
                       cart. coord. in units 2pi/alat
        k(    1) = (   0.0000000   0.0000000   0.0000000), wk =   0.0039062
        k(    2) = (  -0.1250000   0.1250000  -0.1250000), wk =   0.0039062
        k(    3) = (  -0.2500000   0.2500000  -0.2500000), wk =   0.0039062
        k(    4) = (  -0.3750000   0.3750000  -0.3750000), wk =   0.0039062
        k(    5) = (   0.5000000  -0.5000000   0.5000000), wk =   0.0039062
        k(    6) = (   0.3750000  -0.3750000   0.3750000), wk =   0.0039062
        k(    7) = (   0.2500000  -0.2500000   0.2500000), wk =   0.0039062
        k(    8) = (   0.1250000  -0.1250000   0.1250000), wk =   0.0039062
        k(    9) = (   0.1250000   0.1250000   0.1250000), wk =   0.0039062
        k(   10) = (   0.0000000   0.2500000   0.0000000), wk =   0.0039062
        k(   11) = (  -0.1250000   0.3750000  -0.1250000), wk =   0.0039062
        k(   12) = (  -0.2500000   0.5000000  -0.2500000), wk =   0.0039062
        k(   13) = (   0.6250000  -0.3750000   0.6250000), wk =   0.0039062
        k(   14) = (   0.5000000  -0.2500000   0.5000000), wk =   0.0039062
        k(   15) = (   0.3750000  -0.1250000   0.3750000), wk =   0.0039062
        k(   16) = (   0.2500000   0.0000000   0.2500000), wk =   0.0039062
        k(   17) = (   0.2500000   0.2500000   0.2500000), wk =   0.0039062
        k(   18) = (   0.1250000   0.3750000   0.1250000), wk =   0.0039062
        k(   19) = (   0.0000000   0.5000000   0.0000000), wk =   0.0039062
        k(   20) = (  -0.1250000   0.6250000  -0.1250000), wk =   0.0039062
        k(   21) = (   0.7500000  -0.2500000   0.7500000), wk =   0.0039062
        k(   22) = (   0.6250000  -0.1250000   0.6250000), wk =   0.0039062
        k(   23) = (   0.5000000   0.0000000   0.5000000), wk =   0.0039062
        k(   24) = (   0.3750000   0.1250000   0.3750000), wk =   0.0039062
        k(   25) = (   0.3750000   0.3750000   0.3750000), wk =   0.0039062
        k(   26) = (   0.2500000   0.5000000   0.2500000), wk =   0.0039062
        k(   27) = (   0.1250000   0.6250000   0.1250000), wk =   0.0039062
        k(   28) = (   0.0000000   0.7500000   0.0000000), wk =   0.0039062
        k(   29) = (   0.8750000  -0.1250000   0.8750000), wk =   0.0039062
        k(   30) = (   0.7500000   0.0000000   0.7500000), wk =   0.0039062
        k(   31) = (   0.6250000   0.1250000   0.6250000), wk =   0.0039062
        k(   32) = (   0.5000000   0.2500000   0.5000000), wk =   0.0039062
        k(   33) = (  -0.5000000  -0.5000000  -0.5000000), wk =   0.0039062
        k(   34) = (  -0.6250000  -0.3750000  -0.6250000), wk =   0.0039062
        k(   35) = (  -0.7500000  -0.2500000  -0.7500000), wk =   0.0039062
        k(   36) = (  -0.8750000  -0.1250000  -0.8750000), wk =   0.0039062
        k(   37) = (   0.0000000  -1.0000000   0.0000000), wk =   0.0039062
        k(   38) = (  -0.1250000  -0.8750000  -0.1250000), wk =   0.0039062
        k(   39) = (  -0.2500000  -0.7500000  -0.2500000), wk =   0.0039062
        k(   40) = (  -0.3750000  -0.6250000  -0.3750000), wk =   0.0039062
        k(   41) = (  -0.3750000  -0.3750000  -0.3750000), wk =   0.0039062
        k(   42) = (  -0.5000000  -0.2500000  -0.5000000), wk =   0.0039062
        k(   43) = (  -0.6250000  -0.1250000  -0.6250000), wk =   0.0039062
        k(   44) = (  -0.7500000   0.0000000  -0.7500000), wk =   0.0039062
        k(   45) = (   0.1250000  -0.8750000   0.1250000), wk =   0.0039062
        k(   46) = (   0.0000000  -0.7500000   0.0000000), wk =   0.0039062
        k(   47) = (  -0.1250000  -0.6250000  -0.1250000), wk =   0.0039062
        k(   48) = (  -0.2500000  -0.5000000  -0.2500000), wk =   0.0039062
        k(   49) = (  -0.2500000  -0.2500000  -0.2500000), wk =   0.0039062
        k(   50) = (  -0.3750000  -0.1250000  -0.3750000), wk =   0.0039062
        k(   51) = (  -0.5000000   0.0000000  -0.5000000), wk =   0.0039062
        k(   52) = (  -0.6250000   0.1250000  -0.6250000), wk =   0.0039062
        k(   53) = (   0.2500000  -0.7500000   0.2500000), wk =   0.0039062
        k(   54) = (   0.1250000  -0.6250000   0.1250000), wk =   0.0039062
        k(   55) = (   0.0000000  -0.5000000   0.0000000), wk =   0.0039062
        k(   56) = (  -0.1250000  -0.3750000  -0.1250000), wk =   0.0039062
        k(   57) = (  -0.1250000  -0.1250000  -0.1250000), wk =   0.0039062
        k(   58) = (  -0.2500000   0.0000000  -0.2500000), wk =   0.0039062
        k(   59) = (  -0.3750000   0.1250000  -0.3750000), wk =   0.0039062
        k(   60) = (  -0.5000000   0.2500000  -0.5000000), wk =   0.0039062
        k(   61) = (   0.3750000  -0.6250000   0.3750000), wk =   0.0039062
        k(   62) = (   0.2500000  -0.5000000   0.2500000), wk =   0.0039062
        k(   63) = (   0.1250000  -0.3750000   0.1250000), wk =   0.0039062
        k(   64) = (   0.0000000  -0.2500000   0.0000000), wk =   0.0039062
        k(   65) = (  -0.1250000  -0.1250000   0.1250000), wk =   0.0039062
        k(   66) = (  -0.2500000   0.0000000   0.0000000), wk =   0.0039062
        k(   67) = (  -0.3750000   0.1250000  -0.1250000), wk =   0.0039062
        k(   68) = (  -0.5000000   0.2500000  -0.2500000), wk =   0.0039062
        k(   69) = (   0.3750000  -0.6250000   0.6250000), wk =   0.0039062
        k(   70) = (   0.2500000  -0.5000000   0.5000000), wk =   0.0039062
        k(   71) = (   0.1250000  -0.3750000   0.3750000), wk =   0.0039062
        k(   72) = (   0.0000000  -0.2500000   0.2500000), wk =   0.0039062
        k(   73) = (   0.0000000   0.0000000   0.2500000), wk =   0.0039062
        k(   74) = (  -0.1250000   0.1250000   0.1250000), wk =   0.0039062
        k(   75) = (  -0.2500000   0.2500000   0.0000000), wk =   0.0039062
        k(   76) = (  -0.3750000   0.3750000  -0.1250000), wk =   0.0039062
        k(   77) = (   0.5000000  -0.5000000   0.7500000), wk =   0.0039062
        k(   78) = (   0.3750000  -0.3750000   0.6250000), wk =   0.0039062
        k(   79) = (   0.2500000  -0.2500000   0.5000000), wk =   0.0039062
        k(   80) = (   0.1250000  -0.1250000   0.3750000), wk =   0.0039062
        k(   81) = (   0.1250000   0.1250000   0.3750000), wk =   0.0039062
        k(   82) = (   0.0000000   0.2500000   0.2500000), wk =   0.0039062
        k(   83) = (  -0.1250000   0.3750000   0.1250000), wk =   0.0039062
        k(   84) = (  -0.2500000   0.5000000   0.0000000), wk =   0.0039062
        k(   85) = (   0.6250000  -0.3750000   0.8750000), wk =   0.0039062
        k(   86) = (   0.5000000  -0.2500000   0.7500000), wk =   0.0039062
        k(   87) = (   0.3750000  -0.1250000   0.6250000), wk =   0.0039062
        k(   88) = (   0.2500000   0.0000000   0.5000000), wk =   0.0039062
        k(   89) = (   0.2500000   0.2500000   0.5000000), wk =   0.0039062
        k(   90) = (   0.1250000   0.3750000   0.3750000), wk =   0.0039062
        k(   91) = (   0.0000000   0.5000000   0.2500000), wk =   0.0039062
        k(   92) = (  -0.1250000   0.6250000   0.1250000), wk =   0.0039062
        k(   93) = (   0.7500000  -0.2500000   1.0000000), wk =   0.0039062
        k(   94) = (   0.6250000  -0.1250000   0.8750000), wk =   0.0039062
        k(   95) = (   0.5000000   0.0000000   0.7500000), wk =   0.0039062
        k(   96) = (   0.3750000   0.1250000   0.6250000), wk =   0.0039062
        k(   97) = (  -0.6250000  -0.6250000  -0.3750000), wk =   0.0039062
        k(   98) = (  -0.7500000  -0.5000000  -0.5000000), wk =   0.0039062
        k(   99) = (  -0.8750000  -0.3750000  -0.6250000), wk =   0.0039062
        k(  100) = (  -1.0000000  -0.2500000  -0.7500000), wk =   0.0039062
        k(  101) = (  -0.1250000  -1.1250000   0.1250000), wk =   0.0039062
        k(  102) = (  -0.2500000  -1.0000000   0.0000000), wk =   0.0039062
        k(  103) = (  -0.3750000  -0.8750000  -0.1250000), wk =   0.0039062
        k(  104) = (  -0.5000000  -0.7500000  -0.2500000), wk =   0.0039062
        k(  105) = (  -0.5000000  -0.5000000  -0.2500000), wk =   0.0039062
        k(  106) = (  -0.6250000  -0.3750000  -0.3750000), wk =   0.0039062
        k(  107) = (  -0.7500000  -0.2500000  -0.5000000), wk =   0.0039062
        k(  108) = (  -0.8750000  -0.1250000  -0.6250000), wk =   0.0039062
        k(  109) = (   0.0000000  -1.0000000   0.2500000), wk =   0.0039062
        k(  110) = (  -0.1250000  -0.8750000   0.1250000), wk =   0.0039062
        k(  111) = (  -0.2500000  -0.7500000   0.0000000), wk =   0.0039062
        k(  112) = (  -0.3750000  -0.6250000  -0.1250000), wk =   0.0039062
        k(  113) = (  -0.3750000  -0.3750000  -0.1250000), wk =   0.0039062
        k(  114) = (  -0.5000000  -0.2500000  -0.2500000), wk =   0.0039062
        k(  115) = (  -0.6250000  -0.1250000  -0.3750000), wk =   0.0039062
        k(  116) = (  -0.7500000   0.0000000  -0.5000000), wk =   0.0039062
        k(  117) = (   0.1250000  -0.8750000   0.3750000), wk =   0.0039062
        k(  118) = (   0.0000000  -0.7500000   0.2500000), wk =   0.0039062
        k(  119) = (  -0.1250000  -0.6250000   0.1250000), wk =   0.0039062
        k(  120) = (  -0.2500000  -0.5000000   0.0000000), wk =   0.0039062
        k(  121) = (  -0.2500000  -0.2500000   0.0000000), wk =   0.0039062
        k(  122) = (  -0.3750000  -0.1250000  -0.1250000), wk =   0.0039062
        k(  123) = (  -0.5000000   0.0000000  -0.2500000), wk =   0.0039062
        k(  124) = (  -0.6250000   0.1250000  -0.3750000), wk =   0.0039062
        k(  125) = (   0.2500000  -0.7500000   0.5000000), wk =   0.0039062
        k(  126) = (   0.1250000  -0.6250000   0.3750000), wk =   0.0039062
        k(  127) = (   0.0000000  -0.5000000   0.2500000), wk =   0.0039062
        k(  128) = (  -0.1250000  -0.3750000   0.1250000), wk =   0.0039062
        k(  129) = (  -0.2500000  -0.2500000   0.2500000), wk =   0.0039062
        k(  130) = (  -0.3750000  -0.1250000   0.1250000), wk =   0.0039062
        k(  131) = (  -0.5000000   0.0000000   0.0000000), wk =   0.0039062
        k(  132) = (  -0.6250000   0.1250000  -0.1250000), wk =   0.0039062
        k(  133) = (   0.2500000  -0.7500000   0.7500000), wk =   0.0039062
        k(  134) = (   0.1250000  -0.6250000   0.6250000), wk =   0.0039062
        k(  135) = (   0.0000000  -0.5000000   0.5000000), wk =   0.0039062
        k(  136) = (  -0.1250000  -0.3750000   0.3750000), wk =   0.0039062
        k(  137) = (  -0.1250000  -0.1250000   0.3750000), wk =   0.0039062
        k(  138) = (  -0.2500000   0.0000000   0.2500000), wk =   0.0039062
        k(  139) = (  -0.3750000   0.1250000   0.1250000), wk =   0.0039062
        k(  140) = (  -0.5000000   0.2500000   0.0000000), wk =   0.0039062
        k(  141) = (   0.3750000  -0.6250000   0.8750000), wk =   0.0039062
        k(  142) = (   0.2500000  -0.5000000   0.7500000), wk =   0.0039062
        k(  143) = (   0.1250000  -0.3750000   0.6250000), wk =   0.0039062
        k(  144) = (   0.0000000  -0.2500000   0.5000000), wk =   0.0039062
        k(  145) = (   0.0000000   0.0000000   0.5000000), wk =   0.0039062
        k(  146) = (  -0.1250000   0.1250000   0.3750000), wk =   0.0039062
        k(  147) = (  -0.2500000   0.2500000   0.2500000), wk =   0.0039062
        k(  148) = (  -0.3750000   0.3750000   0.1250000), wk =   0.0039062
        k(  149) = (   0.5000000  -0.5000000   1.0000000), wk =   0.0039062
        k(  150) = (   0.3750000  -0.3750000   0.8750000), wk =   0.0039062
        k(  151) = (   0.2500000  -0.2500000   0.7500000), wk =   0.0039062
        k(  152) = (   0.1250000  -0.1250000   0.6250000), wk =   0.0039062
        k(  153) = (   0.1250000   0.1250000   0.6250000), wk =   0.0039062
        k(  154) = (   0.0000000   0.2500000   0.5000000), wk =   0.0039062
        k(  155) = (  -0.1250000   0.3750000   0.3750000), wk =   0.0039062
        k(  156) = (  -0.2500000   0.5000000   0.2500000), wk =   0.0039062
        k(  157) = (   0.6250000  -0.3750000   1.1250000), wk =   0.0039062
        k(  158) = (   0.5000000  -0.2500000   1.0000000), wk =   0.0039062
        k(  159) = (   0.3750000  -0.1250000   0.8750000), wk =   0.0039062
        k(  160) = (   0.2500000   0.0000000   0.7500000), wk =   0.0039062
        k(  161) = (  -0.7500000  -0.7500000  -0.2500000), wk =   0.0039062
        k(  162) = (  -0.8750000  -0.6250000  -0.3750000), wk =   0.0039062
        k(  163) = (  -1.0000000  -0.5000000  -0.5000000), wk =   0.0039062
        k(  164) = (  -1.1250000  -0.3750000  -0.6250000), wk =   0.0039062
        k(  165) = (  -0.2500000  -1.2500000   0.2500000), wk =   0.0039062
        k(  166) = (  -0.3750000  -1.1250000   0.1250000), wk =   0.0039062
        k(  167) = (  -0.5000000  -1.0000000   0.0000000), wk =   0.0039062
        k(  168) = (  -0.6250000  -0.8750000  -0.1250000), wk =   0.0039062
        k(  169) = (  -0.6250000  -0.6250000  -0.1250000), wk =   0.0039062
        k(  170) = (  -0.7500000  -0.5000000  -0.2500000), wk =   0.0039062
        k(  171) = (  -0.8750000  -0.3750000  -0.3750000), wk =   0.0039062
        k(  172) = (  -1.0000000  -0.2500000  -0.5000000), wk =   0.0039062
        k(  173) = (  -0.1250000  -1.1250000   0.3750000), wk =   0.0039062
        k(  174) = (  -0.2500000  -1.0000000   0.2500000), wk =   0.0039062
        k(  175) = (  -0.3750000  -0.8750000   0.1250000), wk =   0.0039062
        k(  176) = (  -0.5000000  -0.7500000   0.0000000), wk =   0.0039062
        k(  177) = (  -0.5000000  -0.5000000   0.0000000), wk =   0.0039062
        k(  178) = (  -0.6250000  -0.3750000  -0.1250000), wk =   0.0039062
        k(  179) = (  -0.7500000  -0.2500000  -0.2500000), wk =   0.0039062
        k(  180) = (  -0.8750000  -0.1250000  -0.3750000), wk =   0.0039062
        k(  181) = (   0.0000000  -1.0000000   0.5000000), wk =   0.0039062
        k(  182) = (  -0.1250000  -0.8750000   0.3750000), wk =   0.0039062
        k(  183) = (  -0.2500000  -0.7500000   0.2500000), wk =   0.0039062
        k(  184) = (  -0.3750000  -0.6250000   0.1250000), wk =   0.0039062
        k(  185) = (  -0.3750000  -0.3750000   0.1250000), wk =   0.0039062
        k(  186) = (  -0.5000000  -0.2500000   0.0000000), wk =   0.0039062
        k(  187) = (  -0.6250000  -0.1250000  -0.1250000), wk =   0.0039062
        k(  188) = (  -0.7500000   0.0000000  -0.2500000), wk =   0.0039062
        k(  189) = (   0.1250000  -0.8750000   0.6250000), wk =   0.0039062
        k(  190) = (   0.0000000  -0.7500000   0.5000000), wk =   0.0039062
        k(  191) = (  -0.1250000  -0.6250000   0.3750000), wk =   0.0039062
        k(  192) = (  -0.2500000  -0.5000000   0.2500000), wk =   0.0039062
        k(  193) = (  -0.3750000  -0.3750000   0.3750000), wk =   0.0039062
        k(  194) = (  -0.5000000  -0.2500000   0.2500000), wk =   0.0039062
        k(  195) = (  -0.6250000  -0.1250000   0.1250000), wk =   0.0039062
        k(  196) = (  -0.7500000   0.0000000   0.0000000), wk =   0.0039062
        k(  197) = (   0.1250000  -0.8750000   0.8750000), wk =   0.0039062
        k(  198) = (   0.0000000  -0.7500000   0.7500000), wk =   0.0039062
        k(  199) = (  -0.1250000  -0.6250000   0.6250000), wk =   0.0039062
        k(  200) = (  -0.2500000  -0.5000000   0.5000000), wk =   0.0039062
        k(  201) = (  -0.2500000  -0.2500000   0.5000000), wk =   0.0039062
        k(  202) = (  -0.3750000  -0.1250000   0.3750000), wk =   0.0039062
        k(  203) = (  -0.5000000   0.0000000   0.2500000), wk =   0.0039062
        k(  204) = (  -0.6250000   0.1250000   0.1250000), wk =   0.0039062
        k(  205) = (   0.2500000  -0.7500000   1.0000000), wk =   0.0039062
        k(  206) = (   0.1250000  -0.6250000   0.8750000), wk =   0.0039062
        k(  207) = (   0.0000000  -0.5000000   0.7500000), wk =   0.0039062
        k(  208) = (  -0.1250000  -0.3750000   0.6250000), wk =   0.0039062
        k(  209) = (  -0.1250000  -0.1250000   0.6250000), wk =   0.0039062
        k(  210) = (  -0.2500000   0.0000000   0.5000000), wk =   0.0039062
        k(  211) = (  -0.3750000   0.1250000   0.3750000), wk =   0.0039062
        k(  212) = (  -0.5000000   0.2500000   0.2500000), wk =   0.0039062
        k(  213) = (   0.3750000  -0.6250000   1.1250000), wk =   0.0039062
        k(  214) = (   0.2500000  -0.5000000   1.0000000), wk =   0.0039062
        k(  215) = (   0.1250000  -0.3750000   0.8750000), wk =   0.0039062
        k(  216) = (   0.0000000  -0.2500000   0.7500000), wk =   0.0039062
        k(  217) = (   0.0000000   0.0000000   0.7500000), wk =   0.0039062
        k(  218) = (  -0.1250000   0.1250000   0.6250000), wk =   0.0039062
        k(  219) = (  -0.2500000   0.2500000   0.5000000), wk =   0.0039062
        k(  220) = (  -0.3750000   0.3750000   0.3750000), wk =   0.0039062
        k(  221) = (   0.5000000  -0.5000000   1.2500000), wk =   0.0039062
        k(  222) = (   0.3750000  -0.3750000   1.1250000), wk =   0.0039062
        k(  223) = (   0.2500000  -0.2500000   1.0000000), wk =   0.0039062
        k(  224) = (   0.1250000  -0.1250000   0.8750000), wk =   0.0039062
        k(  225) = (  -0.8750000  -0.8750000  -0.1250000), wk =   0.0039062
        k(  226) = (  -1.0000000  -0.7500000  -0.2500000), wk =   0.0039062
        k(  227) = (  -1.1250000  -0.6250000  -0.3750000), wk =   0.0039062
        k(  228) = (  -1.2500000  -0.5000000  -0.5000000), wk =   0.0039062
        k(  229) = (  -0.3750000  -1.3750000   0.3750000), wk =   0.0039062
        k(  230) = (  -0.5000000  -1.2500000   0.2500000), wk =   0.0039062
        k(  231) = (  -0.6250000  -1.1250000   0.1250000), wk =   0.0039062
        k(  232) = (  -0.7500000  -1.0000000   0.0000000), wk =   0.0039062
        k(  233) = (  -0.7500000  -0.7500000   0.0000000), wk =   0.0039062
        k(  234) = (  -0.8750000  -0.6250000  -0.1250000), wk =   0.0039062
        k(  235) = (  -1.0000000  -0.5000000  -0.2500000), wk =   0.0039062
        k(  236) = (  -1.1250000  -0.3750000  -0.3750000), wk =   0.0039062
        k(  237) = (  -0.2500000  -1.2500000   0.5000000), wk =   0.0039062
        k(  238) = (  -0.3750000  -1.1250000   0.3750000), wk =   0.0039062
        k(  239) = (  -0.5000000  -1.0000000   0.2500000), wk =   0.0039062
        k(  240) = (  -0.6250000  -0.8750000   0.1250000), wk =   0.0039062
        k(  241) = (  -0.6250000  -0.6250000   0.1250000), wk =   0.0039062
        k(  242) = (  -0.7500000  -0.5000000   0.0000000), wk =   0.0039062
        k(  243) = (  -0.8750000  -0.3750000  -0.1250000), wk =   0.0039062
        k(  244) = (  -1.0000000  -0.2500000  -0.2500000), wk =   0.0039062
        k(  245) = (  -0.1250000  -1.1250000   0.6250000), wk =   0.0039062
        k(  246) = (  -0.2500000  -1.0000000   0.5000000), wk =   0.0039062
        k(  247) = (  -0.3750000  -0.8750000   0.3750000), wk =   0.0039062
        k(  248) = (  -0.5000000  -0.7500000   0.2500000), wk =   0.0039062
        k(  249) = (  -0.5000000  -0.5000000   0.2500000), wk =   0.0039062
        k(  250) = (  -0.6250000  -0.3750000   0.1250000), wk =   0.0039062
        k(  251) = (  -0.7500000  -0.2500000   0.0000000), wk =   0.0039062
        k(  252) = (  -0.8750000  -0.1250000  -0.1250000), wk =   0.0039062
        k(  253) = (   0.0000000  -1.0000000   0.7500000), wk =   0.0039062
        k(  254) = (  -0.1250000  -0.8750000   0.6250000), wk =   0.0039062
        k(  255) = (  -0.2500000  -0.7500000   0.5000000), wk =   0.0039062
        k(  256) = (  -0.3750000  -0.6250000   0.3750000), wk =   0.0039062
        k(  257) = (   0.5000000   0.5000000  -0.5000000), wk =   0.0039062
        k(  258) = (   0.3750000   0.6250000  -0.6250000), wk =   0.0039062
        k(  259) = (   0.2500000   0.7500000  -0.7500000), wk =   0.0039062
        k(  260) = (   0.1250000   0.8750000  -0.8750000), wk =   0.0039062
        k(  261) = (   1.0000000   0.0000000   0.0000000), wk =   0.0039062
        k(  262) = (   0.8750000   0.1250000  -0.1250000), wk =   0.0039062
        k(  263) = (   0.7500000   0.2500000  -0.2500000), wk =   0.0039062
        k(  264) = (   0.6250000   0.3750000  -0.3750000), wk =   0.0039062
        k(  265) = (   0.6250000   0.6250000  -0.3750000), wk =   0.0039062
        k(  266) = (   0.5000000   0.7500000  -0.5000000), wk =   0.0039062
        k(  267) = (   0.3750000   0.8750000  -0.6250000), wk =   0.0039062
        k(  268) = (   0.2500000   1.0000000  -0.7500000), wk =   0.0039062
        k(  269) = (   1.1250000   0.1250000   0.1250000), wk =   0.0039062
        k(  270) = (   1.0000000   0.2500000   0.0000000), wk =   0.0039062
        k(  271) = (   0.8750000   0.3750000  -0.1250000), wk =   0.0039062
        k(  272) = (   0.7500000   0.5000000  -0.2500000), wk =   0.0039062
        k(  273) = (   0.7500000   0.7500000  -0.2500000), wk =   0.0039062
        k(  274) = (   0.6250000   0.8750000  -0.3750000), wk =   0.0039062
        k(  275) = (   0.5000000   1.0000000  -0.5000000), wk =   0.0039062
        k(  276) = (   0.3750000   1.1250000  -0.6250000), wk =   0.0039062
        k(  277) = (   1.2500000   0.2500000   0.2500000), wk =   0.0039062
        k(  278) = (   1.1250000   0.3750000   0.1250000), wk =   0.0039062
        k(  279) = (   1.0000000   0.5000000   0.0000000), wk =   0.0039062
        k(  280) = (   0.8750000   0.6250000  -0.1250000), wk =   0.0039062
        k(  281) = (   0.8750000   0.8750000  -0.1250000), wk =   0.0039062
        k(  282) = (   0.7500000   1.0000000  -0.2500000), wk =   0.0039062
        k(  283) = (   0.6250000   1.1250000  -0.3750000), wk =   0.0039062
        k(  284) = (   0.5000000   1.2500000  -0.5000000), wk =   0.0039062
        k(  285) = (   1.3750000   0.3750000   0.3750000), wk =   0.0039062
        k(  286) = (   1.2500000   0.5000000   0.2500000), wk =   0.0039062
        k(  287) = (   1.1250000   0.6250000   0.1250000), wk =   0.0039062
        k(  288) = (   1.0000000   0.7500000   0.0000000), wk =   0.0039062
        k(  289) = (   0.0000000   0.0000000  -1.0000000), wk =   0.0039062
        k(  290) = (  -0.1250000   0.1250000  -1.1250000), wk =   0.0039062
        k(  291) = (  -0.2500000   0.2500000  -1.2500000), wk =   0.0039062
        k(  292) = (  -0.3750000   0.3750000  -1.3750000), wk =   0.0039062
        k(  293) = (   0.5000000  -0.5000000  -0.5000000), wk =   0.0039062
        k(  294) = (   0.3750000  -0.3750000  -0.6250000), wk =   0.0039062
        k(  295) = (   0.2500000  -0.2500000  -0.7500000), wk =   0.0039062
        k(  296) = (   0.1250000  -0.1250000  -0.8750000), wk =   0.0039062
        k(  297) = (   0.1250000   0.1250000  -0.8750000), wk =   0.0039062
        k(  298) = (   0.0000000   0.2500000  -1.0000000), wk =   0.0039062
        k(  299) = (  -0.1250000   0.3750000  -1.1250000), wk =   0.0039062
        k(  300) = (  -0.2500000   0.5000000  -1.2500000), wk =   0.0039062
        k(  301) = (   0.6250000  -0.3750000  -0.3750000), wk =   0.0039062
        k(  302) = (   0.5000000  -0.2500000  -0.5000000), wk =   0.0039062
        k(  303) = (   0.3750000  -0.1250000  -0.6250000), wk =   0.0039062
        k(  304) = (   0.2500000   0.0000000  -0.7500000), wk =   0.0039062
        k(  305) = (   0.2500000   0.2500000  -0.7500000), wk =   0.0039062
        k(  306) = (   0.1250000   0.3750000  -0.8750000), wk =   0.0039062
        k(  307) = (   0.0000000   0.5000000  -1.0000000), wk =   0.0039062
        k(  308) = (  -0.1250000   0.6250000  -1.1250000), wk =   0.0039062
        k(  309) = (   0.7500000  -0.2500000  -0.2500000), wk =   0.0039062
        k(  310) = (   0.6250000  -0.1250000  -0.3750000), wk =   0.0039062
        k(  311) = (   0.5000000   0.0000000  -0.5000000), wk =   0.0039062
        k(  312) = (   0.3750000   0.1250000  -0.6250000), wk =   0.0039062
        k(  313) = (   0.3750000   0.3750000  -0.6250000), wk =   0.0039062
        k(  314) = (   0.2500000   0.5000000  -0.7500000), wk =   0.0039062
        k(  315) = (   0.1250000   0.6250000  -0.8750000), wk =   0.0039062
        k(  316) = (   0.0000000   0.7500000  -1.0000000), wk =   0.0039062
        k(  317) = (   0.8750000  -0.1250000  -0.1250000), wk =   0.0039062
        k(  318) = (   0.7500000   0.0000000  -0.2500000), wk =   0.0039062
        k(  319) = (   0.6250000   0.1250000  -0.3750000), wk =   0.0039062
        k(  320) = (   0.5000000   0.2500000  -0.5000000), wk =   0.0039062
        k(  321) = (   0.3750000   0.3750000  -0.3750000), wk =   0.0039062
        k(  322) = (   0.2500000   0.5000000  -0.5000000), wk =   0.0039062
        k(  323) = (   0.1250000   0.6250000  -0.6250000), wk =   0.0039062
        k(  324) = (   0.0000000   0.7500000  -0.7500000), wk =   0.0039062
        k(  325) = (   0.8750000  -0.1250000   0.1250000), wk =   0.0039062
        k(  326) = (   0.7500000   0.0000000   0.0000000), wk =   0.0039062
        k(  327) = (   0.6250000   0.1250000  -0.1250000), wk =   0.0039062
        k(  328) = (   0.5000000   0.2500000  -0.2500000), wk =   0.0039062
        k(  329) = (   0.5000000   0.5000000  -0.2500000), wk =   0.0039062
        k(  330) = (   0.3750000   0.6250000  -0.3750000), wk =   0.0039062
        k(  331) = (   0.2500000   0.7500000  -0.5000000), wk =   0.0039062
        k(  332) = (   0.1250000   0.8750000  -0.6250000), wk =   0.0039062
        k(  333) = (   1.0000000   0.0000000   0.2500000), wk =   0.0039062
        k(  334) = (   0.8750000   0.1250000   0.1250000), wk =   0.0039062
        k(  335) = (   0.7500000   0.2500000   0.0000000), wk =   0.0039062
        k(  336) = (   0.6250000   0.3750000  -0.1250000), wk =   0.0039062
        k(  337) = (   0.6250000   0.6250000  -0.1250000), wk =   0.0039062
        k(  338) = (   0.5000000   0.7500000  -0.2500000), wk =   0.0039062
        k(  339) = (   0.3750000   0.8750000  -0.3750000), wk =   0.0039062
        k(  340) = (   0.2500000   1.0000000  -0.5000000), wk =   0.0039062
        k(  341) = (   1.1250000   0.1250000   0.3750000), wk =   0.0039062
        k(  342) = (   1.0000000   0.2500000   0.2500000), wk =   0.0039062
        k(  343) = (   0.8750000   0.3750000   0.1250000), wk =   0.0039062
        k(  344) = (   0.7500000   0.5000000   0.0000000), wk =   0.0039062
        k(  345) = (   0.7500000   0.7500000   0.0000000), wk =   0.0039062
        k(  346) = (   0.6250000   0.8750000  -0.1250000), wk =   0.0039062
        k(  347) = (   0.5000000   1.0000000  -0.2500000), wk =   0.0039062
        k(  348) = (   0.3750000   1.1250000  -0.3750000), wk =   0.0039062
        k(  349) = (   1.2500000   0.2500000   0.5000000), wk =   0.0039062
        k(  350) = (   1.1250000   0.3750000   0.3750000), wk =   0.0039062
        k(  351) = (   1.0000000   0.5000000   0.2500000), wk =   0.0039062
        k(  352) = (   0.8750000   0.6250000   0.1250000), wk =   0.0039062
        k(  353) = (  -0.1250000  -0.1250000  -0.8750000), wk =   0.0039062
        k(  354) = (  -0.2500000   0.0000000  -1.0000000), wk =   0.0039062
        k(  355) = (  -0.3750000   0.1250000  -1.1250000), wk =   0.0039062
        k(  356) = (  -0.5000000   0.2500000  -1.2500000), wk =   0.0039062
        k(  357) = (   0.3750000  -0.6250000  -0.3750000), wk =   0.0039062
        k(  358) = (   0.2500000  -0.5000000  -0.5000000), wk =   0.0039062
        k(  359) = (   0.1250000  -0.3750000  -0.6250000), wk =   0.0039062
        k(  360) = (   0.0000000  -0.2500000  -0.7500000), wk =   0.0039062
        k(  361) = (   0.0000000   0.0000000  -0.7500000), wk =   0.0039062
        k(  362) = (  -0.1250000   0.1250000  -0.8750000), wk =   0.0039062
        k(  363) = (  -0.2500000   0.2500000  -1.0000000), wk =   0.0039062
        k(  364) = (  -0.3750000   0.3750000  -1.1250000), wk =   0.0039062
        k(  365) = (   0.5000000  -0.5000000  -0.2500000), wk =   0.0039062
        k(  366) = (   0.3750000  -0.3750000  -0.3750000), wk =   0.0039062
        k(  367) = (   0.2500000  -0.2500000  -0.5000000), wk =   0.0039062
        k(  368) = (   0.1250000  -0.1250000  -0.6250000), wk =   0.0039062
        k(  369) = (   0.1250000   0.1250000  -0.6250000), wk =   0.0039062
        k(  370) = (   0.0000000   0.2500000  -0.7500000), wk =   0.0039062
        k(  371) = (  -0.1250000   0.3750000  -0.8750000), wk =   0.0039062
        k(  372) = (  -0.2500000   0.5000000  -1.0000000), wk =   0.0039062
        k(  373) = (   0.6250000  -0.3750000  -0.1250000), wk =   0.0039062
        k(  374) = (   0.5000000  -0.2500000  -0.2500000), wk =   0.0039062
        k(  375) = (   0.3750000  -0.1250000  -0.3750000), wk =   0.0039062
        k(  376) = (   0.2500000   0.0000000  -0.5000000), wk =   0.0039062
        k(  377) = (   0.2500000   0.2500000  -0.5000000), wk =   0.0039062
        k(  378) = (   0.1250000   0.3750000  -0.6250000), wk =   0.0039062
        k(  379) = (   0.0000000   0.5000000  -0.7500000), wk =   0.0039062
        k(  380) = (  -0.1250000   0.6250000  -0.8750000), wk =   0.0039062
        k(  381) = (   0.7500000  -0.2500000   0.0000000), wk =   0.0039062
        k(  382) = (   0.6250000  -0.1250000  -0.1250000), wk =   0.0039062
        k(  383) = (   0.5000000   0.0000000  -0.2500000), wk =   0.0039062
        k(  384) = (   0.3750000   0.1250000  -0.3750000), wk =   0.0039062
        k(  385) = (   0.2500000   0.2500000  -0.2500000), wk =   0.0039062
        k(  386) = (   0.1250000   0.3750000  -0.3750000), wk =   0.0039062
        k(  387) = (   0.0000000   0.5000000  -0.5000000), wk =   0.0039062
        k(  388) = (  -0.1250000   0.6250000  -0.6250000), wk =   0.0039062
        k(  389) = (   0.7500000  -0.2500000   0.2500000), wk =   0.0039062
        k(  390) = (   0.6250000  -0.1250000   0.1250000), wk =   0.0039062
        k(  391) = (   0.5000000   0.0000000   0.0000000), wk =   0.0039062
        k(  392) = (   0.3750000   0.1250000  -0.1250000), wk =   0.0039062
        k(  393) = (   0.3750000   0.3750000  -0.1250000), wk =   0.0039062
        k(  394) = (   0.2500000   0.5000000  -0.2500000), wk =   0.0039062
        k(  395) = (   0.1250000   0.6250000  -0.3750000), wk =   0.0039062
        k(  396) = (   0.0000000   0.7500000  -0.5000000), wk =   0.0039062
        k(  397) = (   0.8750000  -0.1250000   0.3750000), wk =   0.0039062
        k(  398) = (   0.7500000   0.0000000   0.2500000), wk =   0.0039062
        k(  399) = (   0.6250000   0.1250000   0.1250000), wk =   0.0039062
        k(  400) = (   0.5000000   0.2500000   0.0000000), wk =   0.0039062
        k(  401) = (   0.5000000   0.5000000   0.0000000), wk =   0.0039062
        k(  402) = (   0.3750000   0.6250000  -0.1250000), wk =   0.0039062
        k(  403) = (   0.2500000   0.7500000  -0.2500000), wk =   0.0039062
        k(  404) = (   0.1250000   0.8750000  -0.3750000), wk =   0.0039062
        k(  405) = (   1.0000000   0.0000000   0.5000000), wk =   0.0039062
        k(  406) = (   0.8750000   0.1250000   0.3750000), wk =   0.0039062
        k(  407) = (   0.7500000   0.2500000   0.2500000), wk =   0.0039062
        k(  408) = (   0.6250000   0.3750000   0.1250000), wk =   0.0039062
        k(  409) = (   0.6250000   0.6250000   0.1250000), wk =   0.0039062
        k(  410) = (   0.5000000   0.7500000   0.0000000), wk =   0.0039062
        k(  411) = (   0.3750000   0.8750000  -0.1250000), wk =   0.0039062
        k(  412) = (   0.2500000   1.0000000  -0.2500000), wk =   0.0039062
        k(  413) = (   1.1250000   0.1250000   0.6250000), wk =   0.0039062
        k(  414) = (   1.0000000   0.2500000   0.5000000), wk =   0.0039062
        k(  415) = (   0.8750000   0.3750000   0.3750000), wk =   0.0039062
        k(  416) = (   0.7500000   0.5000000   0.2500000), wk =   0.0039062
        k(  417) = (  -0.2500000  -0.2500000  -0.7500000), wk =   0.0039062
        k(  418) = (  -0.3750000  -0.1250000  -0.8750000), wk =   0.0039062
        k(  419) = (  -0.5000000   0.0000000  -1.0000000), wk =   0.0039062
        k(  420) = (  -0.6250000   0.1250000  -1.1250000), wk =   0.0039062
        k(  421) = (   0.2500000  -0.7500000  -0.2500000), wk =   0.0039062
        k(  422) = (   0.1250000  -0.6250000  -0.3750000), wk =   0.0039062
        k(  423) = (   0.0000000  -0.5000000  -0.5000000), wk =   0.0039062
        k(  424) = (  -0.1250000  -0.3750000  -0.6250000), wk =   0.0039062
        k(  425) = (  -0.1250000  -0.1250000  -0.6250000), wk =   0.0039062
        k(  426) = (  -0.2500000   0.0000000  -0.7500000), wk =   0.0039062
        k(  427) = (  -0.3750000   0.1250000  -0.8750000), wk =   0.0039062
        k(  428) = (  -0.5000000   0.2500000  -1.0000000), wk =   0.0039062
        k(  429) = (   0.3750000  -0.6250000  -0.1250000), wk =   0.0039062
        k(  430) = (   0.2500000  -0.5000000  -0.2500000), wk =   0.0039062
        k(  431) = (   0.1250000  -0.3750000  -0.3750000), wk =   0.0039062
        k(  432) = (   0.0000000  -0.2500000  -0.5000000), wk =   0.0039062
        k(  433) = (   0.0000000   0.0000000  -0.5000000), wk =   0.0039062
        k(  434) = (  -0.1250000   0.1250000  -0.6250000), wk =   0.0039062
        k(  435) = (  -0.2500000   0.2500000  -0.7500000), wk =   0.0039062
        k(  436) = (  -0.3750000   0.3750000  -0.8750000), wk =   0.0039062
        k(  437) = (   0.5000000  -0.5000000   0.0000000), wk =   0.0039062
        k(  438) = (   0.3750000  -0.3750000  -0.1250000), wk =   0.0039062
        k(  439) = (   0.2500000  -0.2500000  -0.2500000), wk =   0.0039062
        k(  440) = (   0.1250000  -0.1250000  -0.3750000), wk =   0.0039062
        k(  441) = (   0.1250000   0.1250000  -0.3750000), wk =   0.0039062
        k(  442) = (   0.0000000   0.2500000  -0.5000000), wk =   0.0039062
        k(  443) = (  -0.1250000   0.3750000  -0.6250000), wk =   0.0039062
        k(  444) = (  -0.2500000   0.5000000  -0.7500000), wk =   0.0039062
        k(  445) = (   0.6250000  -0.3750000   0.1250000), wk =   0.0039062
        k(  446) = (   0.5000000  -0.2500000   0.0000000), wk =   0.0039062
        k(  447) = (   0.3750000  -0.1250000  -0.1250000), wk =   0.0039062
        k(  448) = (   0.2500000   0.0000000  -0.2500000), wk =   0.0039062
        k(  449) = (   0.1250000   0.1250000  -0.1250000), wk =   0.0039062
        k(  450) = (   0.0000000   0.2500000  -0.2500000), wk =   0.0039062
        k(  451) = (  -0.1250000   0.3750000  -0.3750000), wk =   0.0039062
        k(  452) = (  -0.2500000   0.5000000  -0.5000000), wk =   0.0039062
        k(  453) = (   0.6250000  -0.3750000   0.3750000), wk =   0.0039062
        k(  454) = (   0.5000000  -0.2500000   0.2500000), wk =   0.0039062
        k(  455) = (   0.3750000  -0.1250000   0.1250000), wk =   0.0039062
        k(  456) = (   0.2500000   0.0000000   0.0000000), wk =   0.0039062
        k(  457) = (   0.2500000   0.2500000   0.0000000), wk =   0.0039062
        k(  458) = (   0.1250000   0.3750000  -0.1250000), wk =   0.0039062
        k(  459) = (   0.0000000   0.5000000  -0.2500000), wk =   0.0039062
        k(  460) = (  -0.1250000   0.6250000  -0.3750000), wk =   0.0039062
        k(  461) = (   0.7500000  -0.2500000   0.5000000), wk =   0.0039062
        k(  462) = (   0.6250000  -0.1250000   0.3750000), wk =   0.0039062
        k(  463) = (   0.5000000   0.0000000   0.2500000), wk =   0.0039062
        k(  464) = (   0.3750000   0.1250000   0.1250000), wk =   0.0039062
        k(  465) = (   0.3750000   0.3750000   0.1250000), wk =   0.0039062
        k(  466) = (   0.2500000   0.5000000   0.0000000), wk =   0.0039062
        k(  467) = (   0.1250000   0.6250000  -0.1250000), wk =   0.0039062
        k(  468) = (   0.0000000   0.7500000  -0.2500000), wk =   0.0039062
        k(  469) = (   0.8750000  -0.1250000   0.6250000), wk =   0.0039062
        k(  470) = (   0.7500000   0.0000000   0.5000000), wk =   0.0039062
        k(  471) = (   0.6250000   0.1250000   0.3750000), wk =   0.0039062
        k(  472) = (   0.5000000   0.2500000   0.2500000), wk =   0.0039062
        k(  473) = (   0.5000000   0.5000000   0.2500000), wk =   0.0039062
        k(  474) = (   0.3750000   0.6250000   0.1250000), wk =   0.0039062
        k(  475) = (   0.2500000   0.7500000   0.0000000), wk =   0.0039062
        k(  476) = (   0.1250000   0.8750000  -0.1250000), wk =   0.0039062
        k(  477) = (   1.0000000   0.0000000   0.7500000), wk =   0.0039062
        k(  478) = (   0.8750000   0.1250000   0.6250000), wk =   0.0039062
        k(  479) = (   0.7500000   0.2500000   0.5000000), wk =   0.0039062
        k(  480) = (   0.6250000   0.3750000   0.3750000), wk =   0.0039062
        k(  481) = (  -0.3750000  -0.3750000  -0.6250000), wk =   0.0039062
        k(  482) = (  -0.5000000  -0.2500000  -0.7500000), wk =   0.0039062
        k(  483) = (  -0.6250000  -0.1250000  -0.8750000), wk =   0.0039062
        k(  484) = (  -0.7500000   0.0000000  -1.0000000), wk =   0.0039062
        k(  485) = (   0.1250000  -0.8750000  -0.1250000), wk =   0.0039062
        k(  486) = (   0.0000000  -0.7500000  -0.2500000), wk =   0.0039062
        k(  487) = (  -0.1250000  -0.6250000  -0.3750000), wk =   0.0039062
        k(  488) = (  -0.2500000  -0.5000000  -0.5000000), wk =   0.0039062
        k(  489) = (  -0.2500000  -0.2500000  -0.5000000), wk =   0.0039062
        k(  490) = (  -0.3750000  -0.1250000  -0.6250000), wk =   0.0039062
        k(  491) = (  -0.5000000   0.0000000  -0.7500000), wk =   0.0039062
        k(  492) = (  -0.6250000   0.1250000  -0.8750000), wk =   0.0039062
        k(  493) = (   0.2500000  -0.7500000   0.0000000), wk =   0.0039062
        k(  494) = (   0.1250000  -0.6250000  -0.1250000), wk =   0.0039062
        k(  495) = (   0.0000000  -0.5000000  -0.2500000), wk =   0.0039062
        k(  496) = (  -0.1250000  -0.3750000  -0.3750000), wk =   0.0039062
        k(  497) = (  -0.1250000  -0.1250000  -0.3750000), wk =   0.0039062
        k(  498) = (  -0.2500000   0.0000000  -0.5000000), wk =   0.0039062
        k(  499) = (  -0.3750000   0.1250000  -0.6250000), wk =   0.0039062
        k(  500) = (  -0.5000000   0.2500000  -0.7500000), wk =   0.0039062
        k(  501) = (   0.3750000  -0.6250000   0.1250000), wk =   0.0039062
        k(  502) = (   0.2500000  -0.5000000   0.0000000), wk =   0.0039062
        k(  503) = (   0.1250000  -0.3750000  -0.1250000), wk =   0.0039062
        k(  504) = (   0.0000000  -0.2500000  -0.2500000), wk =   0.0039062
        k(  505) = (   0.0000000   0.0000000  -0.2500000), wk =   0.0039062
        k(  506) = (  -0.1250000   0.1250000  -0.3750000), wk =   0.0039062
        k(  507) = (  -0.2500000   0.2500000  -0.5000000), wk =   0.0039062
        k(  508) = (  -0.3750000   0.3750000  -0.6250000), wk =   0.0039062
        k(  509) = (   0.5000000  -0.5000000   0.2500000), wk =   0.0039062
        k(  510) = (   0.3750000  -0.3750000   0.1250000), wk =   0.0039062
        k(  511) = (   0.2500000  -0.2500000   0.0000000), wk =   0.0039062
        k(  512) = (   0.1250000  -0.1250000  -0.1250000), wk =   0.0039062

                       cryst. coord.
        k(    1) = (   0.0000000   0.0000000   0.0000000), wk =   0.0039062
        k(    2) = (   0.0000000   0.0000000   0.1250000), wk =   0.0039062
        k(    3) = (   0.0000000   0.0000000   0.2500000), wk =   0.0039062
        k(    4) = (   0.0000000   0.0000000   0.3750000), wk =   0.0039062
        k(    5) = (   0.0000000   0.0000000  -0.5000000), wk =   0.0039062
        k(    6) = (   0.0000000   0.0000000  -0.3750000), wk =   0.0039062
        k(    7) = (   0.0000000   0.0000000  -0.2500000), wk =   0.0039062
        k(    8) = (   0.0000000   0.0000000  -0.1250000), wk =   0.0039062
        k(    9) = (   0.0000000   0.1250000   0.0000000), wk =   0.0039062
        k(   10) = (   0.0000000   0.1250000   0.1250000), wk =   0.0039062
        k(   11) = (   0.0000000   0.1250000   0.2500000), wk =   0.0039062
        k(   12) = (   0.0000000   0.1250000   0.3750000), wk =   0.0039062
        k(   13) = (   0.0000000   0.1250000  -0.5000000), wk =   0.0039062
        k(   14) = (   0.0000000   0.1250000  -0.3750000), wk =   0.0039062
        k(   15) = (   0.0000000   0.1250000  -0.2500000), wk =   0.0039062
        k(   16) = (   0.0000000   0.1250000  -0.1250000), wk =   0.0039062
        k(   17) = (   0.0000000   0.2500000   0.0000000), wk =   0.0039062
        k(   18) = (   0.0000000   0.2500000   0.1250000), wk =   0.0039062
        k(   19) = (   0.0000000   0.2500000   0.2500000), wk =   0.0039062
        k(   20) = (   0.0000000   0.2500000   0.3750000), wk =   0.0039062
        k(   21) = (   0.0000000   0.2500000  -0.5000000), wk =   0.0039062
        k(   22) = (   0.0000000   0.2500000  -0.3750000), wk =   0.0039062
        k(   23) = (   0.0000000   0.2500000  -0.2500000), wk =   0.0039062
        k(   24) = (   0.0000000   0.2500000  -0.1250000), wk =   0.0039062
        k(   25) = (   0.0000000   0.3750000   0.0000000), wk =   0.0039062
        k(   26) = (   0.0000000   0.3750000   0.1250000), wk =   0.0039062
        k(   27) = (   0.0000000   0.3750000   0.2500000), wk =   0.0039062
        k(   28) = (   0.0000000   0.3750000   0.3750000), wk =   0.0039062
        k(   29) = (   0.0000000   0.3750000  -0.5000000), wk =   0.0039062
        k(   30) = (   0.0000000   0.3750000  -0.3750000), wk =   0.0039062
        k(   31) = (   0.0000000   0.3750000  -0.2500000), wk =   0.0039062
        k(   32) = (   0.0000000   0.3750000  -0.1250000), wk =   0.0039062
        k(   33) = (   0.0000000  -0.5000000   0.0000000), wk =   0.0039062
        k(   34) = (   0.0000000  -0.5000000   0.1250000), wk =   0.0039062
        k(   35) = (   0.0000000  -0.5000000   0.2500000), wk =   0.0039062
        k(   36) = (   0.0000000  -0.5000000   0.3750000), wk =   0.0039062
        k(   37) = (   0.0000000  -0.5000000  -0.5000000), wk =   0.0039062
        k(   38) = (   0.0000000  -0.5000000  -0.3750000), wk =   0.0039062
        k(   39) = (   0.0000000  -0.5000000  -0.2500000), wk =   0.0039062
        k(   40) = (   0.0000000  -0.5000000  -0.1250000), wk =   0.0039062
        k(   41) = (   0.0000000  -0.3750000   0.0000000), wk =   0.0039062
        k(   42) = (   0.0000000  -0.3750000   0.1250000), wk =   0.0039062
        k(   43) = (   0.0000000  -0.3750000   0.2500000), wk =   0.0039062
        k(   44) = (   0.0000000  -0.3750000   0.3750000), wk =   0.0039062
        k(   45) = (   0.0000000  -0.3750000  -0.5000000), wk =   0.0039062
        k(   46) = (   0.0000000  -0.3750000  -0.3750000), wk =   0.0039062
        k(   47) = (   0.0000000  -0.3750000  -0.2500000), wk =   0.0039062
        k(   48) = (   0.0000000  -0.3750000  -0.1250000), wk =   0.0039062
        k(   49) = (   0.0000000  -0.2500000   0.0000000), wk =   0.0039062
        k(   50) = (   0.0000000  -0.2500000   0.1250000), wk =   0.0039062
        k(   51) = (   0.0000000  -0.2500000   0.2500000), wk =   0.0039062
        k(   52) = (   0.0000000  -0.2500000   0.3750000), wk =   0.0039062
        k(   53) = (   0.0000000  -0.2500000  -0.5000000), wk =   0.0039062
        k(   54) = (   0.0000000  -0.2500000  -0.3750000), wk =   0.0039062
        k(   55) = (   0.0000000  -0.2500000  -0.2500000), wk =   0.0039062
        k(   56) = (   0.0000000  -0.2500000  -0.1250000), wk =   0.0039062
        k(   57) = (   0.0000000  -0.1250000   0.0000000), wk =   0.0039062
        k(   58) = (   0.0000000  -0.1250000   0.1250000), wk =   0.0039062
        k(   59) = (   0.0000000  -0.1250000   0.2500000), wk =   0.0039062
        k(   60) = (   0.0000000  -0.1250000   0.3750000), wk =   0.0039062
        k(   61) = (   0.0000000  -0.1250000  -0.5000000), wk =   0.0039062
        k(   62) = (   0.0000000  -0.1250000  -0.3750000), wk =   0.0039062
        k(   63) = (   0.0000000  -0.1250000  -0.2500000), wk =   0.0039062
        k(   64) = (   0.0000000  -0.1250000  -0.1250000), wk =   0.0039062
        k(   65) = (   0.1250000   0.0000000   0.0000000), wk =   0.0039062
        k(   66) = (   0.1250000   0.0000000   0.1250000), wk =   0.0039062
        k(   67) = (   0.1250000   0.0000000   0.2500000), wk =   0.0039062
        k(   68) = (   0.1250000   0.0000000   0.3750000), wk =   0.0039062
        k(   69) = (   0.1250000   0.0000000  -0.5000000), wk =   0.0039062
        k(   70) = (   0.1250000   0.0000000  -0.3750000), wk =   0.0039062
        k(   71) = (   0.1250000   0.0000000  -0.2500000), wk =   0.0039062
        k(   72) = (   0.1250000   0.0000000  -0.1250000), wk =   0.0039062
        k(   73) = (   0.1250000   0.1250000   0.0000000), wk =   0.0039062
        k(   74) = (   0.1250000   0.1250000   0.1250000), wk =   0.0039062
        k(   75) = (   0.1250000   0.1250000   0.2500000), wk =   0.0039062
        k(   76) = (   0.1250000   0.1250000   0.3750000), wk =   0.0039062
        k(   77) = (   0.1250000   0.1250000  -0.5000000), wk =   0.0039062
        k(   78) = (   0.1250000   0.1250000  -0.3750000), wk =   0.0039062
        k(   79) = (   0.1250000   0.1250000  -0.2500000), wk =   0.0039062
        k(   80) = (   0.1250000   0.1250000  -0.1250000), wk =   0.0039062
        k(   81) = (   0.1250000   0.2500000   0.0000000), wk =   0.0039062
        k(   82) = (   0.1250000   0.2500000   0.1250000), wk =   0.0039062
        k(   83) = (   0.1250000   0.2500000   0.2500000), wk =   0.0039062
        k(   84) = (   0.1250000   0.2500000   0.3750000), wk =   0.0039062
        k(   85) = (   0.1250000   0.2500000  -0.5000000), wk =   0.0039062
        k(   86) = (   0.1250000   0.2500000  -0.3750000), wk =   0.0039062
        k(   87) = (   0.1250000   0.2500000  -0.2500000), wk =   0.0039062
        k(   88) = (   0.1250000   0.2500000  -0.1250000), wk =   0.0039062
        k(   89) = (   0.1250000   0.3750000   0.0000000), wk =   0.0039062
        k(   90) = (   0.1250000   0.3750000   0.1250000), wk =   0.0039062
        k(   91) = (   0.1250000   0.3750000   0.2500000), wk =   0.0039062
        k(   92) = (   0.1250000   0.3750000   0.3750000), wk =   0.0039062
        k(   93) = (   0.1250000   0.3750000  -0.5000000), wk =   0.0039062
        k(   94) = (   0.1250000   0.3750000  -0.3750000), wk =   0.0039062
        k(   95) = (   0.1250000   0.3750000  -0.2500000), wk =   0.0039062
        k(   96) = (   0.1250000   0.3750000  -0.1250000), wk =   0.0039062
        k(   97) = (   0.1250000  -0.5000000   0.0000000), wk =   0.0039062
        k(   98) = (   0.1250000  -0.5000000   0.1250000), wk =   0.0039062
        k(   99) = (   0.1250000  -0.5000000   0.2500000), wk =   0.0039062
        k(  100) = (   0.1250000  -0.5000000   0.3750000), wk =   0.0039062
        k(  101) = (   0.1250000  -0.5000000  -0.5000000), wk =   0.0039062
        k(  102) = (   0.1250000  -0.5000000  -0.3750000), wk =   0.0039062
        k(  103) = (   0.1250000  -0.5000000  -0.2500000), wk =   0.0039062
        k(  104) = (   0.1250000  -0.5000000  -0.1250000), wk =   0.0039062
        k(  105) = (   0.1250000  -0.3750000   0.0000000), wk =   0.0039062
        k(  106) = (   0.1250000  -0.3750000   0.1250000), wk =   0.0039062
        k(  107) = (   0.1250000  -0.3750000   0.2500000), wk =   0.0039062
        k(  108) = (   0.1250000  -0.3750000   0.3750000), wk =   0.0039062
        k(  109) = (   0.1250000  -0.3750000  -0.5000000), wk =   0.0039062
        k(  110) = (   0.1250000  -0.3750000  -0.3750000), wk =   0.0039062
        k(  111) = (   0.1250000  -0.3750000  -0.2500000), wk =   0.0039062
        k(  112) = (   0.1250000  -0.3750000  -0.1250000), wk =   0.0039062
        k(  113) = (   0.1250000  -0.2500000   0.0000000), wk =   0.0039062
        k(  114) = (   0.1250000  -0.2500000   0.1250000), wk =   0.0039062
        k(  115) = (   0.1250000  -0.2500000   0.2500000), wk =   0.0039062
        k(  116) = (   0.1250000  -0.2500000   0.3750000), wk =   0.0039062
        k(  117) = (   0.1250000  -0.2500000  -0.5000000), wk =   0.0039062
        k(  118) = (   0.1250000  -0.2500000  -0.3750000), wk =   0.0039062
        k(  119) = (   0.1250000  -0.2500000  -0.2500000), wk =   0.0039062
        k(  120) = (   0.1250000  -0.2500000  -0.1250000), wk =   0.0039062
        k(  121) = (   0.1250000  -0.1250000   0.0000000), wk =   0.0039062
        k(  122) = (   0.1250000  -0.1250000   0.1250000), wk =   0.0039062
        k(  123) = (   0.1250000  -0.1250000   0.2500000), wk =   0.0039062
        k(  124) = (   0.1250000  -0.1250000   0.3750000), wk =   0.0039062
        k(  125) = (   0.1250000  -0.1250000  -0.5000000), wk =   0.0039062
        k(  126) = (   0.1250000  -0.1250000  -0.3750000), wk =   0.0039062
        k(  127) = (   0.1250000  -0.1250000  -0.2500000), wk =   0.0039062
        k(  128) = (   0.1250000  -0.1250000  -0.1250000), wk =   0.0039062
        k(  129) = (   0.2500000   0.0000000   0.0000000), wk =   0.0039062
        k(  130) = (   0.2500000   0.0000000   0.1250000), wk =   0.0039062
        k(  131) = (   0.2500000   0.0000000   0.2500000), wk =   0.0039062
        k(  132) = (   0.2500000   0.0000000   0.3750000), wk =   0.0039062
        k(  133) = (   0.2500000   0.0000000  -0.5000000), wk =   0.0039062
        k(  134) = (   0.2500000   0.0000000  -0.3750000), wk =   0.0039062
        k(  135) = (   0.2500000   0.0000000  -0.2500000), wk =   0.0039062
        k(  136) = (   0.2500000   0.0000000  -0.1250000), wk =   0.0039062
        k(  137) = (   0.2500000   0.1250000   0.0000000), wk =   0.0039062
        k(  138) = (   0.2500000   0.1250000   0.1250000), wk =   0.0039062
        k(  139) = (   0.2500000   0.1250000   0.2500000), wk =   0.0039062
        k(  140) = (   0.2500000   0.1250000   0.3750000), wk =   0.0039062
        k(  141) = (   0.2500000   0.1250000  -0.5000000), wk =   0.0039062
        k(  142) = (   0.2500000   0.1250000  -0.3750000), wk =   0.0039062
        k(  143) = (   0.2500000   0.1250000  -0.2500000), wk =   0.0039062
        k(  144) = (   0.2500000   0.1250000  -0.1250000), wk =   0.0039062
        k(  145) = (   0.2500000   0.2500000   0.0000000), wk =   0.0039062
        k(  146) = (   0.2500000   0.2500000   0.1250000), wk =   0.0039062
        k(  147) = (   0.2500000   0.2500000   0.2500000), wk =   0.0039062
        k(  148) = (   0.2500000   0.2500000   0.3750000), wk =   0.0039062
        k(  149) = (   0.2500000   0.2500000  -0.5000000), wk =   0.0039062
        k(  150) = (   0.2500000   0.2500000  -0.3750000), wk =   0.0039062
        k(  151) = (   0.2500000   0.2500000  -0.2500000), wk =   0.0039062
        k(  152) = (   0.2500000   0.2500000  -0.1250000), wk =   0.0039062
        k(  153) = (   0.2500000   0.3750000   0.0000000), wk =   0.0039062
        k(  154) = (   0.2500000   0.3750000   0.1250000), wk =   0.0039062
        k(  155) = (   0.2500000   0.3750000   0.2500000), wk =   0.0039062
        k(  156) = (   0.2500000   0.3750000   0.3750000), wk =   0.0039062
        k(  157) = (   0.2500000   0.3750000  -0.5000000), wk =   0.0039062
        k(  158) = (   0.2500000   0.3750000  -0.3750000), wk =   0.0039062
        k(  159) = (   0.2500000   0.3750000  -0.2500000), wk =   0.0039062
        k(  160) = (   0.2500000   0.3750000  -0.1250000), wk =   0.0039062
        k(  161) = (   0.2500000  -0.5000000   0.0000000), wk =   0.0039062
        k(  162) = (   0.2500000  -0.5000000   0.1250000), wk =   0.0039062
        k(  163) = (   0.2500000  -0.5000000   0.2500000), wk =   0.0039062
        k(  164) = (   0.2500000  -0.5000000   0.3750000), wk =   0.0039062
        k(  165) = (   0.2500000  -0.5000000  -0.5000000), wk =   0.0039062
        k(  166) = (   0.2500000  -0.5000000  -0.3750000), wk =   0.0039062
        k(  167) = (   0.2500000  -0.5000000  -0.2500000), wk =   0.0039062
        k(  168) = (   0.2500000  -0.5000000  -0.1250000), wk =   0.0039062
        k(  169) = (   0.2500000  -0.3750000   0.0000000), wk =   0.0039062
        k(  170) = (   0.2500000  -0.3750000   0.1250000), wk =   0.0039062
        k(  171) = (   0.2500000  -0.3750000   0.2500000), wk =   0.0039062
        k(  172) = (   0.2500000  -0.3750000   0.3750000), wk =   0.0039062
        k(  173) = (   0.2500000  -0.3750000  -0.5000000), wk =   0.0039062
        k(  174) = (   0.2500000  -0.3750000  -0.3750000), wk =   0.0039062
        k(  175) = (   0.2500000  -0.3750000  -0.2500000), wk =   0.0039062
        k(  176) = (   0.2500000  -0.3750000  -0.1250000), wk =   0.0039062
        k(  177) = (   0.2500000  -0.2500000   0.0000000), wk =   0.0039062
        k(  178) = (   0.2500000  -0.2500000   0.1250000), wk =   0.0039062
        k(  179) = (   0.2500000  -0.2500000   0.2500000), wk =   0.0039062
        k(  180) = (   0.2500000  -0.2500000   0.3750000), wk =   0.0039062
        k(  181) = (   0.2500000  -0.2500000  -0.5000000), wk =   0.0039062
        k(  182) = (   0.2500000  -0.2500000  -0.3750000), wk =   0.0039062
        k(  183) = (   0.2500000  -0.2500000  -0.2500000), wk =   0.0039062
        k(  184) = (   0.2500000  -0.2500000  -0.1250000), wk =   0.0039062
        k(  185) = (   0.2500000  -0.1250000   0.0000000), wk =   0.0039062
        k(  186) = (   0.2500000  -0.1250000   0.1250000), wk =   0.0039062
        k(  187) = (   0.2500000  -0.1250000   0.2500000), wk =   0.0039062
        k(  188) = (   0.2500000  -0.1250000   0.3750000), wk =   0.0039062
        k(  189) = (   0.2500000  -0.1250000  -0.5000000), wk =   0.0039062
        k(  190) = (   0.2500000  -0.1250000  -0.3750000), wk =   0.0039062
        k(  191) = (   0.2500000  -0.1250000  -0.2500000), wk =   0.0039062
        k(  192) = (   0.2500000  -0.1250000  -0.1250000), wk =   0.0039062
        k(  193) = (   0.3750000   0.0000000   0.0000000), wk =   0.0039062
        k(  194) = (   0.3750000   0.0000000   0.1250000), wk =   0.0039062
        k(  195) = (   0.3750000   0.0000000   0.2500000), wk =   0.0039062
        k(  196) = (   0.3750000   0.0000000   0.3750000), wk =   0.0039062
        k(  197) = (   0.3750000   0.0000000  -0.5000000), wk =   0.0039062
        k(  198) = (   0.3750000   0.0000000  -0.3750000), wk =   0.0039062
        k(  199) = (   0.3750000   0.0000000  -0.2500000), wk =   0.0039062
        k(  200) = (   0.3750000   0.0000000  -0.1250000), wk =   0.0039062
        k(  201) = (   0.3750000   0.1250000   0.0000000), wk =   0.0039062
        k(  202) = (   0.3750000   0.1250000   0.1250000), wk =   0.0039062
        k(  203) = (   0.3750000   0.1250000   0.2500000), wk =   0.0039062
        k(  204) = (   0.3750000   0.1250000   0.3750000), wk =   0.0039062
        k(  205) = (   0.3750000   0.1250000  -0.5000000), wk =   0.0039062
        k(  206) = (   0.3750000   0.1250000  -0.3750000), wk =   0.0039062
        k(  207) = (   0.3750000   0.1250000  -0.2500000), wk =   0.0039062
        k(  208) = (   0.3750000   0.1250000  -0.1250000), wk =   0.0039062
        k(  209) = (   0.3750000   0.2500000   0.0000000), wk =   0.0039062
        k(  210) = (   0.3750000   0.2500000   0.1250000), wk =   0.0039062
        k(  211) = (   0.3750000   0.2500000   0.2500000), wk =   0.0039062
        k(  212) = (   0.3750000   0.2500000   0.3750000), wk =   0.0039062
        k(  213) = (   0.3750000   0.2500000  -0.5000000), wk =   0.0039062
        k(  214) = (   0.3750000   0.2500000  -0.3750000), wk =   0.0039062
        k(  215) = (   0.3750000   0.2500000  -0.2500000), wk =   0.0039062
        k(  216) = (   0.3750000   0.2500000  -0.1250000), wk =   0.0039062
        k(  217) = (   0.3750000   0.3750000   0.0000000), wk =   0.0039062
        k(  218) = (   0.3750000   0.3750000   0.1250000), wk =   0.0039062
        k(  219) = (   0.3750000   0.3750000   0.2500000), wk =   0.0039062
        k(  220) = (   0.3750000   0.3750000   0.3750000), wk =   0.0039062
        k(  221) = (   0.3750000   0.3750000  -0.5000000), wk =   0.0039062
        k(  222) = (   0.3750000   0.3750000  -0.3750000), wk =   0.0039062
        k(  223) = (   0.3750000   0.3750000  -0.2500000), wk =   0.0039062
        k(  224) = (   0.3750000   0.3750000  -0.1250000), wk =   0.0039062
        k(  225) = (   0.3750000  -0.5000000   0.0000000), wk =   0.0039062
        k(  226) = (   0.3750000  -0.5000000   0.1250000), wk =   0.0039062
        k(  227) = (   0.3750000  -0.5000000   0.2500000), wk =   0.0039062
        k(  228) = (   0.3750000  -0.5000000   0.3750000), wk =   0.0039062
        k(  229) = (   0.3750000  -0.5000000  -0.5000000), wk =   0.0039062
        k(  230) = (   0.3750000  -0.5000000  -0.3750000), wk =   0.0039062
        k(  231) = (   0.3750000  -0.5000000  -0.2500000), wk =   0.0039062
        k(  232) = (   0.3750000  -0.5000000  -0.1250000), wk =   0.0039062
        k(  233) = (   0.3750000  -0.3750000   0.0000000), wk =   0.0039062
        k(  234) = (   0.3750000  -0.3750000   0.1250000), wk =   0.0039062
        k(  235) = (   0.3750000  -0.3750000   0.2500000), wk =   0.0039062
        k(  236) = (   0.3750000  -0.3750000   0.3750000), wk =   0.0039062
        k(  237) = (   0.3750000  -0.3750000  -0.5000000), wk =   0.0039062
        k(  238) = (   0.3750000  -0.3750000  -0.3750000), wk =   0.0039062
        k(  239) = (   0.3750000  -0.3750000  -0.2500000), wk =   0.0039062
        k(  240) = (   0.3750000  -0.3750000  -0.1250000), wk =   0.0039062
        k(  241) = (   0.3750000  -0.2500000   0.0000000), wk =   0.0039062
        k(  242) = (   0.3750000  -0.2500000   0.1250000), wk =   0.0039062
        k(  243) = (   0.3750000  -0.2500000   0.2500000), wk =   0.0039062
        k(  244) = (   0.3750000  -0.2500000   0.3750000), wk =   0.0039062
        k(  245) = (   0.3750000  -0.2500000  -0.5000000), wk =   0.0039062
        k(  246) = (   0.3750000  -0.2500000  -0.3750000), wk =   0.0039062
        k(  247) = (   0.3750000  -0.2500000  -0.2500000), wk =   0.0039062
        k(  248) = (   0.3750000  -0.2500000  -0.1250000), wk =   0.0039062
        k(  249) = (   0.3750000  -0.1250000   0.0000000), wk =   0.0039062
        k(  250) = (   0.3750000  -0.1250000   0.1250000), wk =   0.0039062
        k(  251) = (   0.3750000  -0.1250000   0.2500000), wk =   0.0039062
        k(  252) = (   0.3750000  -0.1250000   0.3750000), wk =   0.0039062
        k(  253) = (   0.3750000  -0.1250000  -0.5000000), wk =   0.0039062
        k(  254) = (   0.3750000  -0.1250000  -0.3750000), wk =   0.0039062
        k(  255) = (   0.3750000  -0.1250000  -0.2500000), wk =   0.0039062
        k(  256) = (   0.3750000  -0.1250000  -0.1250000), wk =   0.0039062
        k(  257) = (  -0.5000000   0.0000000   0.0000000), wk =   0.0039062
        k(  258) = (  -0.5000000   0.0000000   0.1250000), wk =   0.0039062
        k(  259) = (  -0.5000000   0.0000000   0.2500000), wk =   0.0039062
        k(  260) = (  -0.5000000   0.0000000   0.3750000), wk =   0.0039062
        k(  261) = (  -0.5000000   0.0000000  -0.5000000), wk =   0.0039062
        k(  262) = (  -0.5000000   0.0000000  -0.3750000), wk =   0.0039062
        k(  263) = (  -0.5000000   0.0000000  -0.2500000), wk =   0.0039062
        k(  264) = (  -0.5000000   0.0000000  -0.1250000), wk =   0.0039062
        k(  265) = (  -0.5000000   0.1250000   0.0000000), wk =   0.0039062
        k(  266) = (  -0.5000000   0.1250000   0.1250000), wk =   0.0039062
        k(  267) = (  -0.5000000   0.1250000   0.2500000), wk =   0.0039062
        k(  268) = (  -0.5000000   0.1250000   0.3750000), wk =   0.0039062
        k(  269) = (  -0.5000000   0.1250000  -0.5000000), wk =   0.0039062
        k(  270) = (  -0.5000000   0.1250000  -0.3750000), wk =   0.0039062
        k(  271) = (  -0.5000000   0.1250000  -0.2500000), wk =   0.0039062
        k(  272) = (  -0.5000000   0.1250000  -0.1250000), wk =   0.0039062
        k(  273) = (  -0.5000000   0.2500000   0.0000000), wk =   0.0039062
        k(  274) = (  -0.5000000   0.2500000   0.1250000), wk =   0.0039062
        k(  275) = (  -0.5000000   0.2500000   0.2500000), wk =   0.0039062
        k(  276) = (  -0.5000000   0.2500000   0.3750000), wk =   0.0039062
        k(  277) = (  -0.5000000   0.2500000  -0.5000000), wk =   0.0039062
        k(  278) = (  -0.5000000   0.2500000  -0.3750000), wk =   0.0039062
        k(  279) = (  -0.5000000   0.2500000  -0.2500000), wk =   0.0039062
        k(  280) = (  -0.5000000   0.2500000  -0.1250000), wk =   0.0039062
        k(  281) = (  -0.5000000   0.3750000   0.0000000), wk =   0.0039062
        k(  282) = (  -0.5000000   0.3750000   0.1250000), wk =   0.0039062
        k(  283) = (  -0.5000000   0.3750000   0.2500000), wk =   0.0039062
        k(  284) = (  -0.5000000   0.3750000   0.3750000), wk =   0.0039062
        k(  285) = (  -0.5000000   0.3750000  -0.5000000), wk =   0.0039062
        k(  286) = (  -0.5000000   0.3750000  -0.3750000), wk =   0.0039062
        k(  287) = (  -0.5000000   0.3750000  -0.2500000), wk =   0.0039062
        k(  288) = (  -0.5000000   0.3750000  -0.1250000), wk =   0.0039062
        k(  289) = (  -0.5000000  -0.5000000   0.0000000), wk =   0.0039062
        k(  290) = (  -0.5000000  -0.5000000   0.1250000), wk =   0.0039062
        k(  291) = (  -0.5000000  -0.5000000   0.2500000), wk =   0.0039062
        k(  292) = (  -0.5000000  -0.5000000   0.3750000), wk =   0.0039062
        k(  293) = (  -0.5000000  -0.5000000  -0.5000000), wk =   0.0039062
        k(  294) = (  -0.5000000  -0.5000000  -0.3750000), wk =   0.0039062
        k(  295) = (  -0.5000000  -0.5000000  -0.2500000), wk =   0.0039062
        k(  296) = (  -0.5000000  -0.5000000  -0.1250000), wk =   0.0039062
        k(  297) = (  -0.5000000  -0.3750000   0.0000000), wk =   0.0039062
        k(  298) = (  -0.5000000  -0.3750000   0.1250000), wk =   0.0039062
        k(  299) = (  -0.5000000  -0.3750000   0.2500000), wk =   0.0039062
        k(  300) = (  -0.5000000  -0.3750000   0.3750000), wk =   0.0039062
        k(  301) = (  -0.5000000  -0.3750000  -0.5000000), wk =   0.0039062
        k(  302) = (  -0.5000000  -0.3750000  -0.3750000), wk =   0.0039062
        k(  303) = (  -0.5000000  -0.3750000  -0.2500000), wk =   0.0039062
        k(  304) = (  -0.5000000  -0.3750000  -0.1250000), wk =   0.0039062
        k(  305) = (  -0.5000000  -0.2500000   0.0000000), wk =   0.0039062
        k(  306) = (  -0.5000000  -0.2500000   0.1250000), wk =   0.0039062
        k(  307) = (  -0.5000000  -0.2500000   0.2500000), wk =   0.0039062
        k(  308) = (  -0.5000000  -0.2500000   0.3750000), wk =   0.0039062
        k(  309) = (  -0.5000000  -0.2500000  -0.5000000), wk =   0.0039062
        k(  310) = (  -0.5000000  -0.2500000  -0.3750000), wk =   0.0039062
        k(  311) = (  -0.5000000  -0.2500000  -0.2500000), wk =   0.0039062
        k(  312) = (  -0.5000000  -0.2500000  -0.1250000), wk =   0.0039062
        k(  313) = (  -0.5000000  -0.1250000   0.0000000), wk =   0.0039062
        k(  314) = (  -0.5000000  -0.1250000   0.1250000), wk =   0.0039062
        k(  315) = (  -0.5000000  -0.1250000   0.2500000), wk =   0.0039062
        k(  316) = (  -0.5000000  -0.1250000   0.3750000), wk =   0.0039062
        k(  317) = (  -0.5000000  -0.1250000  -0.5000000), wk =   0.0039062
        k(  318) = (  -0.5000000  -0.1250000  -0.3750000), wk =   0.0039062
        k(  319) = (  -0.5000000  -0.1250000  -0.2500000), wk =   0.0039062
        k(  320) = (  -0.5000000  -0.1250000  -0.1250000), wk =   0.0039062
        k(  321) = (  -0.3750000   0.0000000   0.0000000), wk =   0.0039062
        k(  322) = (  -0.3750000   0.0000000   0.1250000), wk =   0.0039062
        k(  323) = (  -0.3750000   0.0000000   0.2500000), wk =   0.0039062
        k(  324) = (  -0.3750000   0.0000000   0.3750000), wk =   0.0039062
        k(  325) = (  -0.3750000   0.0000000  -0.5000000), wk =   0.0039062
        k(  326) = (  -0.3750000   0.0000000  -0.3750000), wk =   0.0039062
        k(  327) = (  -0.3750000   0.0000000  -0.2500000), wk =   0.0039062
        k(  328) = (  -0.3750000   0.0000000  -0.1250000), wk =   0.0039062
        k(  329) = (  -0.3750000   0.1250000   0.0000000), wk =   0.0039062
        k(  330) = (  -0.3750000   0.1250000   0.1250000), wk =   0.0039062
        k(  331) = (  -0.3750000   0.1250000   0.2500000), wk =   0.0039062
        k(  332) = (  -0.3750000   0.1250000   0.3750000), wk =   0.0039062
        k(  333) = (  -0.3750000   0.1250000  -0.5000000), wk =   0.0039062
        k(  334) = (  -0.3750000   0.1250000  -0.3750000), wk =   0.0039062
        k(  335) = (  -0.3750000   0.1250000  -0.2500000), wk =   0.0039062
        k(  336) = (  -0.3750000   0.1250000  -0.1250000), wk =   0.0039062
        k(  337) = (  -0.3750000   0.2500000   0.0000000), wk =   0.0039062
        k(  338) = (  -0.3750000   0.2500000   0.1250000), wk =   0.0039062
        k(  339) = (  -0.3750000   0.2500000   0.2500000), wk =   0.0039062
        k(  340) = (  -0.3750000   0.2500000   0.3750000), wk =   0.0039062
        k(  341) = (  -0.3750000   0.2500000  -0.5000000), wk =   0.0039062
        k(  342) = (  -0.3750000   0.2500000  -0.3750000), wk =   0.0039062
        k(  343) = (  -0.3750000   0.2500000  -0.2500000), wk =   0.0039062
        k(  344) = (  -0.3750000   0.2500000  -0.1250000), wk =   0.0039062
        k(  345) = (  -0.3750000   0.3750000   0.0000000), wk =   0.0039062
        k(  346) = (  -0.3750000   0.3750000   0.1250000), wk =   0.0039062
        k(  347) = (  -0.3750000   0.3750000   0.2500000), wk =   0.0039062
        k(  348) = (  -0.3750000   0.3750000   0.3750000), wk =   0.0039062
        k(  349) = (  -0.3750000   0.3750000  -0.5000000), wk =   0.0039062
        k(  350) = (  -0.3750000   0.3750000  -0.3750000), wk =   0.0039062
        k(  351) = (  -0.3750000   0.3750000  -0.2500000), wk =   0.0039062
        k(  352) = (  -0.3750000   0.3750000  -0.1250000), wk =   0.0039062
        k(  353) = (  -0.3750000  -0.5000000   0.0000000), wk =   0.0039062
        k(  354) = (  -0.3750000  -0.5000000   0.1250000), wk =   0.0039062
        k(  355) = (  -0.3750000  -0.5000000   0.2500000), wk =   0.0039062
        k(  356) = (  -0.3750000  -0.5000000   0.3750000), wk =   0.0039062
        k(  357) = (  -0.3750000  -0.5000000  -0.5000000), wk =   0.0039062
        k(  358) = (  -0.3750000  -0.5000000  -0.3750000), wk =   0.0039062
        k(  359) = (  -0.3750000  -0.5000000  -0.2500000), wk =   0.0039062
        k(  360) = (  -0.3750000  -0.5000000  -0.1250000), wk =   0.0039062
        k(  361) = (  -0.3750000  -0.3750000   0.0000000), wk =   0.0039062
        k(  362) = (  -0.3750000  -0.3750000   0.1250000), wk =   0.0039062
        k(  363) = (  -0.3750000  -0.3750000   0.2500000), wk =   0.0039062
        k(  364) = (  -0.3750000  -0.3750000   0.3750000), wk =   0.0039062
        k(  365) = (  -0.3750000  -0.3750000  -0.5000000), wk =   0.0039062
        k(  366) = (  -0.3750000  -0.3750000  -0.3750000), wk =   0.0039062
        k(  367) = (  -0.3750000  -0.3750000  -0.2500000), wk =   0.0039062
        k(  368) = (  -0.3750000  -0.3750000  -0.1250000), wk =   0.0039062
        k(  369) = (  -0.3750000  -0.2500000   0.0000000), wk =   0.0039062
        k(  370) = (  -0.3750000  -0.2500000   0.1250000), wk =   0.0039062
        k(  371) = (  -0.3750000  -0.2500000   0.2500000), wk =   0.0039062
        k(  372) = (  -0.3750000  -0.2500000   0.3750000), wk =   0.0039062
        k(  373) = (  -0.3750000  -0.2500000  -0.5000000), wk =   0.0039062
        k(  374) = (  -0.3750000  -0.2500000  -0.3750000), wk =   0.0039062
        k(  375) = (  -0.3750000  -0.2500000  -0.2500000), wk =   0.0039062
        k(  376) = (  -0.3750000  -0.2500000  -0.1250000), wk =   0.0039062
        k(  377) = (  -0.3750000  -0.1250000   0.0000000), wk =   0.0039062
        k(  378) = (  -0.3750000  -0.1250000   0.1250000), wk =   0.0039062
        k(  379) = (  -0.3750000  -0.1250000   0.2500000), wk =   0.0039062
        k(  380) = (  -0.3750000  -0.1250000   0.3750000), wk =   0.0039062
        k(  381) = (  -0.3750000  -0.1250000  -0.5000000), wk =   0.0039062
        k(  382) = (  -0.3750000  -0.1250000  -0.3750000), wk =   0.0039062
        k(  383) = (  -0.3750000  -0.1250000  -0.2500000), wk =   0.0039062
        k(  384) = (  -0.3750000  -0.1250000  -0.1250000), wk =   0.0039062
        k(  385) = (  -0.2500000   0.0000000   0.0000000), wk =   0.0039062
        k(  386) = (  -0.2500000   0.0000000   0.1250000), wk =   0.0039062
        k(  387) = (  -0.2500000   0.0000000   0.2500000), wk =   0.0039062
        k(  388) = (  -0.2500000   0.0000000   0.3750000), wk =   0.0039062
        k(  389) = (  -0.2500000   0.0000000  -0.5000000), wk =   0.0039062
        k(  390) = (  -0.2500000   0.0000000  -0.3750000), wk =   0.0039062
        k(  391) = (  -0.2500000   0.0000000  -0.2500000), wk =   0.0039062
        k(  392) = (  -0.2500000   0.0000000  -0.1250000), wk =   0.0039062
        k(  393) = (  -0.2500000   0.1250000   0.0000000), wk =   0.0039062
        k(  394) = (  -0.2500000   0.1250000   0.1250000), wk =   0.0039062
        k(  395) = (  -0.2500000   0.1250000   0.2500000), wk =   0.0039062
        k(  396) = (  -0.2500000   0.1250000   0.3750000), wk =   0.0039062
        k(  397) = (  -0.2500000   0.1250000  -0.5000000), wk =   0.0039062
        k(  398) = (  -0.2500000   0.1250000  -0.3750000), wk =   0.0039062
        k(  399) = (  -0.2500000   0.1250000  -0.2500000), wk =   0.0039062
        k(  400) = (  -0.2500000   0.1250000  -0.1250000), wk =   0.0039062
        k(  401) = (  -0.2500000   0.2500000   0.0000000), wk =   0.0039062
        k(  402) = (  -0.2500000   0.2500000   0.1250000), wk =   0.0039062
        k(  403) = (  -0.2500000   0.2500000   0.2500000), wk =   0.0039062
        k(  404) = (  -0.2500000   0.2500000   0.3750000), wk =   0.0039062
        k(  405) = (  -0.2500000   0.2500000  -0.5000000), wk =   0.0039062
        k(  406) = (  -0.2500000   0.2500000  -0.3750000), wk =   0.0039062
        k(  407) = (  -0.2500000   0.2500000  -0.2500000), wk =   0.0039062
        k(  408) = (  -0.2500000   0.2500000  -0.1250000), wk =   0.0039062
        k(  409) = (  -0.2500000   0.3750000   0.0000000), wk =   0.0039062
        k(  410) = (  -0.2500000   0.3750000   0.1250000), wk =   0.0039062
        k(  411) = (  -0.2500000   0.3750000   0.2500000), wk =   0.0039062
        k(  412) = (  -0.2500000   0.3750000   0.3750000), wk =   0.0039062
        k(  413) = (  -0.2500000   0.3750000  -0.5000000), wk =   0.0039062
        k(  414) = (  -0.2500000   0.3750000  -0.3750000), wk =   0.0039062
        k(  415) = (  -0.2500000   0.3750000  -0.2500000), wk =   0.0039062
        k(  416) = (  -0.2500000   0.3750000  -0.1250000), wk =   0.0039062
        k(  417) = (  -0.2500000  -0.5000000   0.0000000), wk =   0.0039062
        k(  418) = (  -0.2500000  -0.5000000   0.1250000), wk =   0.0039062
        k(  419) = (  -0.2500000  -0.5000000   0.2500000), wk =   0.0039062
        k(  420) = (  -0.2500000  -0.5000000   0.3750000), wk =   0.0039062
        k(  421) = (  -0.2500000  -0.5000000  -0.5000000), wk =   0.0039062
        k(  422) = (  -0.2500000  -0.5000000  -0.3750000), wk =   0.0039062
        k(  423) = (  -0.2500000  -0.5000000  -0.2500000), wk =   0.0039062
        k(  424) = (  -0.2500000  -0.5000000  -0.1250000), wk =   0.0039062
        k(  425) = (  -0.2500000  -0.3750000   0.0000000), wk =   0.0039062
        k(  426) = (  -0.2500000  -0.3750000   0.1250000), wk =   0.0039062
        k(  427) = (  -0.2500000  -0.3750000   0.2500000), wk =   0.0039062
        k(  428) = (  -0.2500000  -0.3750000   0.3750000), wk =   0.0039062
        k(  429) = (  -0.2500000  -0.3750000  -0.5000000), wk =   0.0039062
        k(  430) = (  -0.2500000  -0.3750000  -0.3750000), wk =   0.0039062
        k(  431) = (  -0.2500000  -0.3750000  -0.2500000), wk =   0.0039062
        k(  432) = (  -0.2500000  -0.3750000  -0.1250000), wk =   0.0039062
        k(  433) = (  -0.2500000  -0.2500000   0.0000000), wk =   0.0039062
        k(  434) = (  -0.2500000  -0.2500000   0.1250000), wk =   0.0039062
        k(  435) = (  -0.2500000  -0.2500000   0.2500000), wk =   0.0039062
        k(  436) = (  -0.2500000  -0.2500000   0.3750000), wk =   0.0039062
        k(  437) = (  -0.2500000  -0.2500000  -0.5000000), wk =   0.0039062
        k(  438) = (  -0.2500000  -0.2500000  -0.3750000), wk =   0.0039062
        k(  439) = (  -0.2500000  -0.2500000  -0.2500000), wk =   0.0039062
        k(  440) = (  -0.2500000  -0.2500000  -0.1250000), wk =   0.0039062
        k(  441) = (  -0.2500000  -0.1250000   0.0000000), wk =   0.0039062
        k(  442) = (  -0.2500000  -0.1250000   0.1250000), wk =   0.0039062
        k(  443) = (  -0.2500000  -0.1250000   0.2500000), wk =   0.0039062
        k(  444) = (  -0.2500000  -0.1250000   0.3750000), wk =   0.0039062
        k(  445) = (  -0.2500000  -0.1250000  -0.5000000), wk =   0.0039062
        k(  446) = (  -0.2500000  -0.1250000  -0.3750000), wk =   0.0039062
        k(  447) = (  -0.2500000  -0.1250000  -0.2500000), wk =   0.0039062
        k(  448) = (  -0.2500000  -0.1250000  -0.1250000), wk =   0.0039062
        k(  449) = (  -0.1250000   0.0000000   0.0000000), wk =   0.0039062
        k(  450) = (  -0.1250000   0.0000000   0.1250000), wk =   0.0039062
        k(  451) = (  -0.1250000   0.0000000   0.2500000), wk =   0.0039062
        k(  452) = (  -0.1250000   0.0000000   0.3750000), wk =   0.0039062
        k(  453) = (  -0.1250000   0.0000000  -0.5000000), wk =   0.0039062
        k(  454) = (  -0.1250000   0.0000000  -0.3750000), wk =   0.0039062
        k(  455) = (  -0.1250000   0.0000000  -0.2500000), wk =   0.0039062
        k(  456) = (  -0.1250000   0.0000000  -0.1250000), wk =   0.0039062
        k(  457) = (  -0.1250000   0.1250000   0.0000000), wk =   0.0039062
        k(  458) = (  -0.1250000   0.1250000   0.1250000), wk =   0.0039062
        k(  459) = (  -0.1250000   0.1250000   0.2500000), wk =   0.0039062
        k(  460) = (  -0.1250000   0.1250000   0.3750000), wk =   0.0039062
        k(  461) = (  -0.1250000   0.1250000  -0.5000000), wk =   0.0039062
        k(  462) = (  -0.1250000   0.1250000  -0.3750000), wk =   0.0039062
        k(  463) = (  -0.1250000   0.1250000  -0.2500000), wk =   0.0039062
        k(  464) = (  -0.1250000   0.1250000  -0.1250000), wk =   0.0039062
        k(  465) = (  -0.1250000   0.2500000   0.0000000), wk =   0.0039062
        k(  466) = (  -0.1250000   0.2500000   0.1250000), wk =   0.0039062
        k(  467) = (  -0.1250000   0.2500000   0.2500000), wk =   0.0039062
        k(  468) = (  -0.1250000   0.2500000   0.3750000), wk =   0.0039062
        k(  469) = (  -0.1250000   0.2500000  -0.5000000), wk =   0.0039062
        k(  470) = (  -0.1250000   0.2500000  -0.3750000), wk =   0.0039062
        k(  471) = (  -0.1250000   0.2500000  -0.2500000), wk =   0.0039062
        k(  472) = (  -0.1250000   0.2500000  -0.1250000), wk =   0.0039062
        k(  473) = (  -0.1250000   0.3750000   0.0000000), wk =   0.0039062
        k(  474) = (  -0.1250000   0.3750000   0.1250000), wk =   0.0039062
[...]
     0.0000   0.0000   0.0000   0.0000   0.0000   0.0000   0.0000   0.0000
     0.0000   0.0000   0.0000   0.0000

          k = 0.1250 0.8750-0.1250 (   415 PWs)   bands (ev):

    -2.3872  -0.5344   2.7763   3.5792   6.9607   8.0691  14.4729  14.5451
    16.9414  17.0667  18.6125  18.9918  21.0246  21.2437  21.9780  24.6879
    24.9250  25.4349  26.8679  28.3577

     occupation numbers 
     1.0000   1.0000   1.0000   1.0000   0.0000   0.0000   0.0000   0.0000
     0.0000   0.0000   0.0000   0.0000   0.0000   0.0000   0.0000   0.0000
     0.0000   0.0000   0.0000   0.0000

          k = 1.0000 0.0000 0.7500 (   412 PWs)   bands (ev):

    -1.4462  -1.4462   2.7957   2.7957   8.0763   8.0763  14.0259  14.0259
    16.8171  16.8171  19.0793  19.0793  21.7781  21.7781  23.4763  23.4763
    25.0467  25.0467  27.8774  27.8774

     occupation numbers 
     1.0000   1.0000   1.0000   1.0000   0.0000   0.0000   0.0000   0.0000
     0.0000   0.0000   0.0000   0.0000   0.0000   0.0000   0.0000   0.0000
     0.0000   0.0000   0.0000   0.0000

          k = 0.8750 0.1250 0.6250 (   406 PWs)   bands (ev):

    -2.1986  -0.6411   2.1245   3.2649   8.5044  10.4260  11.4435  13.6033
    14.6324  17.3179  18.4235  20.3121  21.5707  22.2260  23.6271  24.3780
    24.9507  25.6692  27.1137  27.9255

     occupation numbers 
     1.0000   1.0000   1.0000   1.0000   0.0000   0.0000   0.0000   0.0000
     0.0000   0.0000   0.0000   0.0000   0.0000   0.0000   0.0000   0.0000
     0.0000   0.0000   0.0000   0.0000

          k = 0.7500 0.2500 0.5000 (   414 PWs)   bands (ev):

    -2.7958  -0.5420   2.7746   4.0975   9.2245   9.2514  12.1151  13.2909
    13.5349  16.7296  17.8518  18.4713  21.6605  21.8045  24.2235  24.6057
    25.6514  26.9464  27.1805  28.1940

     occupation numbers 
     1.0000   1.0000   1.0000   1.0000   0.0000   0.0000   0.0000   0.0000
     0.0000   0.0000   0.0000   0.0000   0.0000   0.0000   0.0000   0.0000
     0.0000   0.0000   0.0000   0.0000

          k = 0.6250 0.3750 0.3750 (   405 PWs)   bands (ev):

    -3.2518  -0.5237   3.9812   4.7315   8.3306   9.6743  10.2754  13.4894
    15.0154  16.7547  17.6389  17.8676  18.6454  21.1890  24.4615  25.7814
    26.3881  27.2752  28.2174  28.4900

     occupation numbers 
     1.0000   1.0000   1.0000   1.0000   0.0000   0.0000   0.0000   0.0000
     0.0000   0.0000   0.0000   0.0000   0.0000   0.0000   0.0000   0.0000
     0.0000   0.0000   0.0000   0.0000

          k =-0.3750-0.3750-0.6250 (   405 PWs)   bands (ev):

    -3.2518  -0.5237   3.9812   4.7315   8.3306   9.6743  10.2754  13.4894
    15.0154  16.7547  17.6389  17.8676  18.6454  21.1890  24.4615  25.7814
    26.3881  27.2752  28.2174  28.4900

     occupation numbers 
     1.0000   1.0000   1.0000   1.0000   0.0000   0.0000   0.0000   0.0000
     0.0000   0.0000   0.0000   0.0000   0.0000   0.0000   0.0000   0.0000
     0.0000   0.0000   0.0000   0.0000

          k =-0.5000-0.2500-0.7500 (   414 PWs)   bands (ev):

    -2.7958  -0.5420   2.7746   4.0975   9.2245   9.2514  12.1151  13.2909
    13.5349  16.7296  17.8518  18.4713  21.6605  21.8045  24.2235  24.6057
    25.6514  26.9464  27.1805  28.1940

     occupation numbers 
     1.0000   1.0000   1.0000   1.0000   0.0000   0.0000   0.0000   0.0000
     0.0000   0.0000   0.0000   0.0000   0.0000   0.0000   0.0000   0.0000
     0.0000   0.0000   0.0000   0.0000

          k =-0.6250-0.1250-0.8750 (   406 PWs)   bands (ev):

    -2.1986  -0.6411   2.1245   3.2649   8.5044  10.4260  11.4435  13.6033
    14.6324  17.3179  18.4235  20.3121  21.5707  22.2260  23.6271  24.3780
    24.9507  25.6692  27.1137  27.9255

     occupation numbers 
     1.0000   1.0000   1.0000   1.0000   0.0000   0.0000   0.0000   0.0000
     0.0000   0.0000   0.0000   0.0000   0.0000   0.0000   0.0000   0.0000
     0.0000   0.0000   0.0000   0.0000

          k =-0.7500 0.0000-1.0000 (   412 PWs)   bands (ev):

    -1.4462  -1.4462   2.7957   2.7957   8.0763   8.0763  14.0259  14.0259
    16.8171  16.8171  19.0793  19.0793  21.7781  21.7781  23.4763  23.4763
    25.0467  25.0467  27.8774  27.8774

     occupation numbers 
     1.0000   1.0000   1.0000   1.0000   0.0000   0.0000   0.0000   0.0000
     0.0000   0.0000   0.0000   0.0000   0.0000   0.0000   0.0000   0.0000
     0.0000   0.0000   0.0000   0.0000

          k = 0.1250-0.8750-0.1250 (   415 PWs)   bands (ev):

    -2.3872  -0.5344   2.7763   3.5792   6.9607   8.0691  14.4729  14.5451
    16.9414  17.0667  18.6125  18.9918  21.0246  21.2437  21.9780  24.6879
    24.9250  25.4349  26.8679  28.3577

     occupation numbers 
     1.0000   1.0000   1.0000   1.0000   0.0000   0.0000   0.0000   0.0000
     0.0000   0.0000   0.0000   0.0000   0.0000   0.0000   0.0000   0.0000
     0.0000   0.0000   0.0000   0.0000

          k = 0.0000-0.7500-0.2500 (   410 PWs)   bands (ev):

    -3.0906   0.3373   2.8509   3.4745   8.0704   8.7412  11.9409  14.2154
    16.3983  16.4022  19.0717  19.5552  20.2534  20.7011  22.7172  23.3173
    25.6026  26.1120  27.9448  28.0232

     occupation numbers 
     1.0000   1.0000   1.0000   1.0000   0.0000   0.0000   0.0000   0.0000
     0.0000   0.0000   0.0000   0.0000   0.0000   0.0000   0.0000   0.0000
     0.0000   0.0000   0.0000   0.0000

          k =-0.1250-0.6250-0.3750 (   411 PWs)   bands (ev):

    -3.4655   0.4274   2.8997   4.3362   9.0159   9.7061  11.1582  12.1467
    15.2155  15.8527  18.0482  19.1483  20.3462  21.2488  23.3403  24.4263
    25.2634  27.0996  27.9970  28.9517

     occupation numbers 
     1.0000   1.0000   1.0000   1.0000   0.0000   0.0000   0.0000   0.0000
     0.0000   0.0000   0.0000   0.0000   0.0000   0.0000   0.0000   0.0000
     0.0000   0.0000   0.0000   0.0000

          k =-0.2500-0.5000-0.5000 (   406 PWs)   bands (ev):

    -3.5041  -0.1439   3.7915   5.0397   8.5061   9.7776  10.0348  13.9805
    14.3166  15.2900  17.3001  18.6395  20.5330  20.7545  22.9975  24.7429
    26.7405  28.3063  28.5514  28.8153

     occupation numbers 
     1.0000   1.0000   1.0000   1.0000   0.0000   0.0000   0.0000   0.0000
     0.0000   0.0000   0.0000   0.0000   0.0000   0.0000   0.0000   0.0000
     0.0000   0.0000   0.0000   0.0000

          k =-0.2500-0.2500-0.5000 (   397 PWs)   bands (ev):

    -4.1334   0.9682   4.4371   4.7005   8.3841   9.8176  10.6642  11.6056
    15.3562  15.5777  16.0421  19.4565  19.6559  21.4152  22.7396  23.7848
    24.7302  28.2042  28.6519  29.6756

     occupation numbers 
     1.0000   1.0000   1.0000   1.0000   0.0000   0.0000   0.0000   0.0000
     0.0000   0.0000   0.0000   0.0000   0.0000   0.0000   0.0000   0.0000
     0.0000   0.0000   0.0000   0.0000

          k =-0.3750-0.1250-0.6250 (   411 PWs)   bands (ev):

    -3.4655   0.4274   2.8997   4.3362   9.0159   9.7061  11.1582  12.1467
    15.2155  15.8527  18.0482  19.1483  20.3462  21.2488  23.3403  24.4263
    25.2634  27.0996  27.9970  28.9517

     occupation numbers 
     1.0000   1.0000   1.0000   1.0000   0.0000   0.0000   0.0000   0.0000
     0.0000   0.0000   0.0000   0.0000   0.0000   0.0000   0.0000   0.0000
     0.0000   0.0000   0.0000   0.0000

          k =-0.5000 0.0000-0.7500 (   407 PWs)   bands (ev):

    -2.5529  -0.2770   1.9506   3.6535   8.9947  10.7115  11.3596  13.1966
    14.0824  15.4510  20.2427  20.3859  20.6017  22.5667  22.7349  24.6503
    25.2446  26.1758  27.3040  28.0951

     occupation numbers 
     1.0000   1.0000   1.0000   1.0000   0.0000   0.0000   0.0000   0.0000
     0.0000   0.0000   0.0000   0.0000   0.0000   0.0000   0.0000   0.0000
     0.0000   0.0000   0.0000   0.0000

          k =-0.6250 0.1250-0.8750 (   406 PWs)   bands (ev):

    -2.1986  -0.6411   2.1245   3.2649   8.5044  10.4260  11.4435  13.6033
    14.6324  17.3179  18.4235  20.3121  21.5707  22.2260  23.6271  24.3780
    24.9507  25.6692  27.1137  27.9255

     occupation numbers 
     1.0000   1.0000   1.0000   1.0000   0.0000   0.0000   0.0000   0.0000
     0.0000   0.0000   0.0000   0.0000   0.0000   0.0000   0.0000   0.0000
     0.0000   0.0000   0.0000   0.0000

          k = 0.2500-0.7500 0.0000 (   410 PWs)   bands (ev):

    -3.0906   0.3373   2.8509   3.4745   8.0704   8.7412  11.9409  14.2154
    16.3983  16.4022  19.0717  19.5552  20.2534  20.7011  22.7172  23.3173
    25.6026  26.1120  27.9448  28.0232

     occupation numbers 
     1.0000   1.0000   1.0000   1.0000   0.0000   0.0000   0.0000   0.0000
     0.0000   0.0000   0.0000   0.0000   0.0000   0.0000   0.0000   0.0000
     0.0000   0.0000   0.0000   0.0000

          k = 0.1250-0.6250-0.1250 (   410 PWs)   bands (ev):

    -3.8996   1.3561   3.5663   4.0613   7.4501   8.9851  12.2071  12.4916
    16.2686  16.3468  17.6702  19.4623  19.7383  21.0063  21.9384  23.1155
    24.6550  26.0260  28.0972  30.2578

     occupation numbers 
     1.0000   1.0000   1.0000   1.0000   0.0000   0.0000   0.0000   0.0000
     0.0000   0.0000   0.0000   0.0000   0.0000   0.0000   0.0000   0.0000
     0.0000   0.0000   0.0000   0.0000

          k = 0.0000-0.5000-0.2500 (   410 PWs)   bands (ev):

    -4.3657   2.0033   3.5129   4.8594   8.5965  10.0444  10.3375  11.7234
    13.9827  16.4766  17.0596  18.1518  20.0160  21.0953  22.0519  24.2928
    25.5800  26.6846  27.9247  29.4081

     occupation numbers 
     1.0000   1.0000   1.0000   1.0000   0.0000   0.0000   0.0000   0.0000
     0.0000   0.0000   0.0000   0.0000   0.0000   0.0000   0.0000   0.0000
     0.0000   0.0000   0.0000   0.0000

          k =-0.1250-0.3750-0.3750 (   407 PWs)   bands (ev):

    -4.4444   1.6367   3.9365   5.5476   8.8777   9.8525  10.0335  12.4147
    12.6659  15.7950  16.2948  18.4583  20.1682  21.4533  22.6529  24.1778
    24.9792  27.6379  28.2370  29.1461

     occupation numbers 
     1.0000   1.0000   1.0000   1.0000   0.0000   0.0000   0.0000   0.0000
     0.0000   0.0000   0.0000   0.0000   0.0000   0.0000   0.0000   0.0000
     0.0000   0.0000   0.0000   0.0000

          k =-0.1250-0.1250-0.3750 (   400 PWs)   bands (ev):

    -4.9580   3.0574   4.9694   5.0445   8.2952   9.8953  10.6927  10.8829
    13.6883  14.4464  15.9422  17.5614  19.2202  20.4961  23.7842  24.2338
    25.2292  27.7015  27.8747  29.2444

     occupation numbers 
     1.0000   1.0000   1.0000   1.0000   0.0000   0.0000   0.0000   0.0000
     0.0000   0.0000   0.0000   0.0000   0.0000   0.0000   0.0000   0.0000
     0.0000   0.0000   0.0000   0.0000

          k =-0.2500 0.0000-0.5000 (   410 PWs)   bands (ev):

    -4.3657   2.0033   3.5129   4.8594   8.5965  10.0444  10.3375  11.7234
    13.9827  16.4766  17.0596  18.1518  20.0160  21.0953  22.0519  24.2928
    25.5800  26.6846  27.9247  29.4081

     occupation numbers 
     1.0000   1.0000   1.0000   1.0000   0.0000   0.0000   0.0000   0.0000
     0.0000   0.0000   0.0000   0.0000   0.0000   0.0000   0.0000   0.0000
     0.0000   0.0000   0.0000   0.0000

          k =-0.3750 0.1250-0.6250 (   411 PWs)   bands (ev):

    -3.4655   0.4274   2.8997   4.3362   9.0159   9.7061  11.1582  12.1467
    15.2155  15.8527  18.0482  19.1483  20.3462  21.2488  23.3403  24.4263
    25.2634  27.0996  27.9970  28.9517

     occupation numbers 
     1.0000   1.0000   1.0000   1.0000   0.0000   0.0000   0.0000   0.0000
     0.0000   0.0000   0.0000   0.0000   0.0000   0.0000   0.0000   0.0000
     0.0000   0.0000   0.0000   0.0000

          k =-0.5000 0.2500-0.7500 (   414 PWs)   bands (ev):

    -2.7958  -0.5420   2.7746   4.0975   9.2245   9.2514  12.1151  13.2909
    13.5349  16.7296  17.8518  18.4713  21.6605  21.8045  24.2235  24.6057
    25.6514  26.9464  27.1805  28.1940

     occupation numbers 
     1.0000   1.0000   1.0000   1.0000   0.0000   0.0000   0.0000   0.0000
     0.0000   0.0000   0.0000   0.0000   0.0000   0.0000   0.0000   0.0000
     0.0000   0.0000   0.0000   0.0000

          k = 0.3750-0.6250 0.1250 (   411 PWs)   bands (ev):

    -3.4655   0.4274   2.8997   4.3362   9.0159   9.7061  11.1582  12.1467
    15.2155  15.8527  18.0482  19.1483  20.3462  21.2488  23.3403  24.4263
    25.2634  27.0996  27.9970  28.9517

     occupation numbers 
     1.0000   1.0000   1.0000   1.0000   0.0000   0.0000   0.0000   0.0000
     0.0000   0.0000   0.0000   0.0000   0.0000   0.0000   0.0000   0.0000
     0.0000   0.0000   0.0000   0.0000

          k = 0.2500-0.5000 0.0000 (   410 PWs)   bands (ev):

    -4.3657   2.0033   3.5129   4.8594   8.5965  10.0444  10.3375  11.7234
    13.9827  16.4766  17.0596  18.1518  20.0160  21.0953  22.0519  24.2928
    25.5800  26.6846  27.9247  29.4081

     occupation numbers 
     1.0000   1.0000   1.0000   1.0000   0.0000   0.0000   0.0000   0.0000
     0.0000   0.0000   0.0000   0.0000   0.0000   0.0000   0.0000   0.0000
     0.0000   0.0000   0.0000   0.0000

          k = 0.1250-0.3750-0.1250 (   400 PWs)   bands (ev):

    -4.9580   3.0574   4.9694   5.0445   8.2952   9.8953  10.6927  10.8829
    13.6883  14.4464  15.9422  17.5614  19.2202  20.4961  23.7842  24.2338
    25.2292  27.7015  27.8747  29.2444

     occupation numbers 
     1.0000   1.0000   1.0000   1.0000   0.0000   0.0000   0.0000   0.0000
     0.0000   0.0000   0.0000   0.0000   0.0000   0.0000   0.0000   0.0000
     0.0000   0.0000   0.0000   0.0000

          k = 0.0000-0.2500-0.2500 (   399 PWs)   bands (ev):

    -5.1606   3.6065   4.6268   6.0468   9.2169   9.3047   9.5584  11.6938
    12.5337  14.2499  15.6645  17.1994  18.3818  20.6097  23.9003  24.0273
    27.0362  27.4369  27.9722  29.3475

     occupation numbers 
     1.0000   1.0000   1.0000   1.0000   0.0000   0.0000   0.0000   0.0000
     0.0000   0.0000   0.0000   0.0000   0.0000   0.0000   0.0000   0.0000
     0.0000   0.0000   0.0000   0.0000

          k = 0.0000 0.0000-0.2500 (   399 PWs)   bands (ev):

    -5.4300   4.9842   5.4938   5.4938   8.1499   9.9270   9.9270  10.5485
    12.6837  14.3086  14.9228  17.7216  17.7216  18.2326  23.0553  26.7984
    26.7984  28.1763  28.8601  29.7230

     occupation numbers 
     1.0000   1.0000   1.0000   1.0000   0.0000   0.0000   0.0000   0.0000
     0.0000   0.0000   0.0000   0.0000   0.0000   0.0000   0.0000   0.0000
     0.0000   0.0000   0.0000   0.0000

          k =-0.1250 0.1250-0.3750 (   400 PWs)   bands (ev):

    -4.9580   3.0574   4.9694   5.0445   8.2952   9.8953  10.6927  10.8829
    13.6883  14.4464  15.9422  17.5614  19.2202  20.4961  23.7842  24.2338
    25.2292  27.7015  27.8747  29.2444

     occupation numbers 
     1.0000   1.0000   1.0000   1.0000   0.0000   0.0000   0.0000   0.0000
     0.0000   0.0000   0.0000   0.0000   0.0000   0.0000   0.0000   0.0000
     0.0000   0.0000   0.0000   0.0000

          k =-0.2500 0.2500-0.5000 (   397 PWs)   bands (ev):

    -4.1334   0.9682   4.4371   4.7005   8.3841   9.8176  10.6642  11.6056
    15.3562  15.5777  16.0421  19.4565  19.6559  21.4152  22.7396  23.7848
    24.7302  28.2042  28.6519  29.6756

     occupation numbers 
     1.0000   1.0000   1.0000   1.0000   0.0000   0.0000   0.0000   0.0000
     0.0000   0.0000   0.0000   0.0000   0.0000   0.0000   0.0000   0.0000
     0.0000   0.0000   0.0000   0.0000

          k =-0.3750 0.3750-0.6250 (   405 PWs)   bands (ev):

    -3.2518  -0.5237   3.9812   4.7315   8.3306   9.6743  10.2754  13.4894
    15.0154  16.7547  17.6389  17.8676  18.6454  21.1890  24.4615  25.7814
    26.3881  27.2752  28.2174  28.4900

     occupation numbers 
     1.0000   1.0000   1.0000   1.0000   0.0000   0.0000   0.0000   0.0000
     0.0000   0.0000   0.0000   0.0000   0.0000   0.0000   0.0000   0.0000
     0.0000   0.0000   0.0000   0.0000

          k = 0.5000-0.5000 0.2500 (   406 PWs)   bands (ev):

    -3.5041  -0.1439   3.7915   5.0397   8.5061   9.7776  10.0348  13.9805
    14.3166  15.2900  17.3001  18.6395  20.5330  20.7545  22.9975  24.7429
    26.7405  28.3063  28.5514  28.8153

     occupation numbers 
     1.0000   1.0000   1.0000   1.0000   0.0000   0.0000   0.0000   0.0000
     0.0000   0.0000   0.0000   0.0000   0.0000   0.0000   0.0000   0.0000
     0.0000   0.0000   0.0000   0.0000

          k = 0.3750-0.3750 0.1250 (   407 PWs)   bands (ev):

    -4.4444   1.6367   3.9365   5.5476   8.8777   9.8525  10.0335  12.4147
    12.6659  15.7950  16.2948  18.4583  20.1682  21.4533  22.6529  24.1778
    24.9792  27.6379  28.2370  29.1461

     occupation numbers 
     1.0000   1.0000   1.0000   1.0000   0.0000   0.0000   0.0000   0.0000
     0.0000   0.0000   0.0000   0.0000   0.0000   0.0000   0.0000   0.0000
     0.0000   0.0000   0.0000   0.0000

          k = 0.2500-0.2500 0.0000 (   399 PWs)   bands (ev):

    -5.1606   3.6065   4.6268   6.0468   9.2169   9.3047   9.5584  11.6938
    12.5337  14.2499  15.6645  17.1994  18.3818  20.6097  23.9003  24.0273
    27.0362  27.4369  27.9722  29.3475

     occupation numbers 
     1.0000   1.0000   1.0000   1.0000   0.0000   0.0000   0.0000   0.0000
     0.0000   0.0000   0.0000   0.0000   0.0000   0.0000   0.0000   0.0000
     0.0000   0.0000   0.0000   0.0000

          k = 0.1250-0.1250-0.1250 (   408 PWs)   bands (ev):

    -5.4995   4.6898   6.0401   6.0401   8.6630   9.1809   9.1809  10.8762
    13.4638  13.4638  14.6174  16.6358  18.4661  18.4661  22.4222  27.3212
    27.3212  27.5350  30.1720  30.1720

     occupation numbers 
     1.0000   1.0000   1.0000   1.0000   0.0000   0.0000   0.0000   0.0000
     0.0000   0.0000   0.0000   0.0000   0.0000   0.0000   0.0000   0.0000
     0.0000   0.0000   0.0000   0.0000

     highest occupied, lowest unoccupied level (ev):     6.3461    6.6859

     Writing all to output data dir /home/nicola/Scrivania/CODES/git/hubbard-koopmans-2022/Day3/2_Si_kcp/postproc/wannier/TMP/kc.save/
 
     init_run     :      0.02s CPU      0.03s WALL (       1 calls)
     electrons    :     34.81s CPU     39.68s WALL (       1 calls)

     Called by init_run:
     wfcinit      :      0.00s CPU      0.00s WALL (       1 calls)
     wfcinit:atom :      0.01s CPU      0.01s WALL (     512 calls)
     wfcinit:wfcr :      1.15s CPU      1.37s WALL (     512 calls)
     potinit      :      0.00s CPU      0.00s WALL (       1 calls)
     hinit0       :      0.01s CPU      0.01s WALL (       1 calls)

     Called by electrons:
     c_bands      :     34.80s CPU     39.63s WALL (       1 calls)
     v_of_rho     :      0.00s CPU      0.00s WALL (       1 calls)
     v_h          :      0.00s CPU      0.00s WALL (       1 calls)
     v_xc         :      0.00s CPU      0.00s WALL (       1 calls)

     Called by c_bands:
     init_us_2    :      0.02s CPU      0.03s WALL (     512 calls)
     init_us_2:cp :      0.02s CPU      0.03s WALL (     512 calls)
     cegterg      :     33.26s CPU     37.71s WALL (    1055 calls)

     Called by sum_band:

     Called by *egterg:
     cdiaghg      :      8.90s CPU     10.04s WALL (   16563 calls)
     cegterg:over :      1.51s CPU      1.75s WALL (   16051 calls)
     cegterg:upda :      0.52s CPU      0.58s WALL (   16051 calls)
     cegterg:last :      0.85s CPU      0.95s WALL (   10748 calls)
     h_psi        :     21.48s CPU     24.46s WALL (   17618 calls)
     g_psi        :      0.10s CPU      0.11s WALL (   16051 calls)

     Called by h_psi:
     h_psi:calbec :      0.93s CPU      1.06s WALL (   17618 calls)
     vloc_psi     :     19.75s CPU     22.50s WALL (   17618 calls)
     add_vuspsi   :      0.59s CPU      0.66s WALL (   17618 calls)

     General routines
     calbec       :      0.87s CPU      1.00s WALL (   17618 calls)
     fft          :      0.00s CPU      0.00s WALL (       4 calls)
     fftw         :     17.36s CPU     19.84s WALL (  431332 calls)
     davcio       :      0.08s CPU      0.14s WALL (    1024 calls)
 
     Parallel routines
 
     PWSCF        :     35.23s CPU     40.51s WALL

 
   This run was terminated on:  14:20: 9  17Oct2022            

=------------------------------------------------------------------------------=
   JOB DONE.
=------------------------------------------------------------------------------=
