
     Program PWSCF v.7.1 starts on 31Oct2022 at 14:10:20 

     This program is part of the open-source Quantum ESPRESSO suite
     for quantum simulation of materials; please cite
         "P. Giannozzi et al., J. Phys.:Condens. Matter 21 395502 (2009);
         "P. Giannozzi et al., J. Phys.:Condens. Matter 29 465901 (2017);
         "P. Giannozzi et al., J. Chem. Phys. 152 154105 (2020);
          URL http://www.quantum-espresso.org", 
     in publications or presentations arising from this work. More details at
     http://www.quantum-espresso.org/quote

     Parallel version (MPI), running on     1 processors

     MPI processes distributed on     1 nodes
     292 MiB available memory on the printing compute node when the environment starts
 
     Reading input from Si.bands.in

     Current dimensions of program PWSCF are:
     Max number of different atomic species (ntypx) = 10
     Max number of k-points (npk) =  40000
     Max angular momentum in pseudopotentials (lmaxx) =  4

     Atomic positions and unit cell read from directory:
     ./out/si.save/
     Atomic positions from file used, from input discarded
 
 
     Subspace diagonalization in iterative solution of the eigenvalue problem:
     a serial algorithm will be used

 
     G-vector sticks info
     --------------------
     sticks:   dense  smooth     PW     G-vecs:    dense   smooth      PW
     Sum         583     583    169                 9257     9257    1471
 
     Using Slab Decomposition
 


     bravais-lattice index     =            2
     lattice parameter (alat)  =      10.2622  a.u.
     unit-cell volume          =     270.1851 (a.u.)^3
     number of atoms/cell      =            2
     number of atomic types    =            1
     number of electrons       =         8.00
     number of Kohn-Sham states=           12
     kinetic-energy cutoff     =      40.0000  Ry
     charge density cutoff     =     160.0000  Ry
     Exchange-correlation= PBE
                           (   1   4   3   4   0   0   0)

     celldm(1)=  10.262200  celldm(2)=   0.000000  celldm(3)=   0.000000
     celldm(4)=   0.000000  celldm(5)=   0.000000  celldm(6)=   0.000000

     crystal axes: (cart. coord. in units of alat)
               a(1) = (  -0.500000   0.000000   0.500000 )  
               a(2) = (   0.000000   0.500000   0.500000 )  
               a(3) = (  -0.500000   0.500000   0.000000 )  

     reciprocal axes: (cart. coord. in units 2 pi/alat)
               b(1) = ( -1.000000 -1.000000  1.000000 )  
               b(2) = (  1.000000  1.000000  1.000000 )  
               b(3) = ( -1.000000  1.000000 -1.000000 )  


     PseudoPot. # 1 for Si read from file:
     ../../files/pseudo/Si_ONCV_PBE-1.2.upf
     MD5 check sum: 7f029a58b69e3aa87b46a36c608bf45e
     Pseudo is Norm-conserving, Zval =  4.0
     Generated using ONCVPSP code by D. R. Hamann
     Using radial grid of  602 points,  4 beta functions with: 
                l(1) =   0
                l(2) =   0
                l(3) =   1
                l(4) =   1

     atomic species   valence    mass     pseudopotential
        Si             4.00    28.08500     Si( 1.00)

     48 Sym. Ops., with inversion, found (24 have fractional translation)


                                    s                        frac. trans.

      isym =  1     identity                                     

 cryst.   s( 1) = (     1          0          0      )
                  (     0          1          0      )
                  (     0          0          1      )

 cart.    s( 1) = (  1.0000000  0.0000000  0.0000000 )
                  (  0.0000000  1.0000000  0.0000000 )
                  (  0.0000000  0.0000000  1.0000000 )


      isym =  2     180 deg rotation - cart. axis [0,0,1]        

 cryst.   s( 2) = (     0          1         -1      )
                  (     1          0         -1      )
                  (     0          0         -1      )

 cart.    s( 2) = ( -1.0000000  0.0000000  0.0000000 )
                  (  0.0000000 -1.0000000  0.0000000 )
                  (  0.0000000  0.0000000  1.0000000 )


      isym =  3     180 deg rotation - cart. axis [0,1,0]        

 cryst.   s( 3) = (    -1          0          0      )
                  (    -1          0          1      )
                  (    -1          1          0      )

 cart.    s( 3) = ( -1.0000000  0.0000000  0.0000000 )
                  (  0.0000000  1.0000000  0.0000000 )
                  (  0.0000000  0.0000000 -1.0000000 )


      isym =  4     180 deg rotation - cart. axis [1,0,0]        

 cryst.   s( 4) = (     0         -1          1      )
                  (     0         -1          0      )
                  (     1         -1          0      )

 cart.    s( 4) = (  1.0000000  0.0000000  0.0000000 )
                  (  0.0000000 -1.0000000  0.0000000 )
                  (  0.0000000  0.0000000 -1.0000000 )


      isym =  5     180 deg rotation - cart. axis [1,1,0]        

 cryst.   s( 5) = (     0         -1          0      )    f =( -0.2500000 )
                  (    -1          0          0      )       ( -0.2500000 )
                  (     0          0         -1      )       ( -0.2500000 )

 cart.    s( 5) = (  0.0000000  1.0000000  0.0000000 )    f =(  0.2500000 )
                  (  1.0000000  0.0000000  0.0000000 )       ( -0.2500000 )
                  (  0.0000000  0.0000000 -1.0000000 )       ( -0.2500000 )


      isym =  6     180 deg rotation - cart. axis [1,-1,0]       

 cryst.   s( 6) = (    -1          0          1      )    f =( -0.2500000 )
                  (     0         -1          1      )       ( -0.2500000 )
                  (     0          0          1      )       ( -0.2500000 )

 cart.    s( 6) = (  0.0000000 -1.0000000  0.0000000 )    f =(  0.2500000 )
                  ( -1.0000000  0.0000000  0.0000000 )       ( -0.2500000 )
                  (  0.0000000  0.0000000 -1.0000000 )       ( -0.2500000 )


      isym =  7      90 deg rotation - cart. axis [0,0,-1]       

 cryst.   s( 7) = (     0          1          0      )    f =( -0.2500000 )
                  (     0          1         -1      )       ( -0.2500000 )
                  (    -1          1          0      )       ( -0.2500000 )

 cart.    s( 7) = (  0.0000000  1.0000000  0.0000000 )    f =(  0.2500000 )
                  ( -1.0000000  0.0000000  0.0000000 )       ( -0.2500000 )
                  (  0.0000000  0.0000000  1.0000000 )       ( -0.2500000 )


      isym =  8      90 deg rotation - cart. axis [0,0,1]        

 cryst.   s( 8) = (     1          0         -1      )    f =( -0.2500000 )
                  (     1          0          0      )       ( -0.2500000 )
                  (     1         -1          0      )       ( -0.2500000 )

 cart.    s( 8) = (  0.0000000 -1.0000000  0.0000000 )    f =(  0.2500000 )
                  (  1.0000000  0.0000000  0.0000000 )       ( -0.2500000 )
                  (  0.0000000  0.0000000  1.0000000 )       ( -0.2500000 )


      isym =  9     180 deg rotation - cart. axis [1,0,1]        

 cryst.   s( 9) = (    -1          0          0      )    f =( -0.2500000 )
                  (     0          0         -1      )       ( -0.2500000 )
                  (     0         -1          0      )       ( -0.2500000 )

 cart.    s( 9) = (  0.0000000  0.0000000  1.0000000 )    f =(  0.2500000 )
                  (  0.0000000 -1.0000000  0.0000000 )       ( -0.2500000 )
                  (  1.0000000  0.0000000  0.0000000 )       ( -0.2500000 )


      isym = 10     180 deg rotation - cart. axis [-1,0,1]       

 cryst.   s(10) = (     1          0          0      )    f =( -0.2500000 )
                  (     1         -1          0      )       ( -0.2500000 )
                  (     1          0         -1      )       ( -0.2500000 )

 cart.    s(10) = (  0.0000000  0.0000000 -1.0000000 )    f =(  0.2500000 )
                  (  0.0000000 -1.0000000  0.0000000 )       ( -0.2500000 )
                  ( -1.0000000  0.0000000  0.0000000 )       ( -0.2500000 )


      isym = 11      90 deg rotation - cart. axis [0,1,0]        

 cryst.   s(11) = (     0          1         -1      )    f =( -0.2500000 )
                  (    -1          1          0      )       ( -0.2500000 )
                  (     0          1          0      )       ( -0.2500000 )

 cart.    s(11) = (  0.0000000  0.0000000  1.0000000 )    f =(  0.2500000 )
                  (  0.0000000  1.0000000  0.0000000 )       ( -0.2500000 )
                  ( -1.0000000  0.0000000  0.0000000 )       ( -0.2500000 )


      isym = 12      90 deg rotation - cart. axis [0,-1,0]       

 cryst.   s(12) = (     0         -1          1      )    f =( -0.2500000 )
                  (     0          0          1      )       ( -0.2500000 )
                  (    -1          0          1      )       ( -0.2500000 )

 cart.    s(12) = (  0.0000000  0.0000000 -1.0000000 )    f =(  0.2500000 )
                  (  0.0000000  1.0000000  0.0000000 )       ( -0.2500000 )
                  (  1.0000000  0.0000000  0.0000000 )       ( -0.2500000 )


      isym = 13     180 deg rotation - cart. axis [0,1,1]        

 cryst.   s(13) = (    -1          1          0      )    f =( -0.2500000 )
                  (     0          1          0      )       ( -0.2500000 )
                  (     0          1         -1      )       ( -0.2500000 )

 cart.    s(13) = ( -1.0000000  0.0000000  0.0000000 )    f =(  0.2500000 )
                  (  0.0000000  0.0000000  1.0000000 )       ( -0.2500000 )
                  (  0.0000000  1.0000000  0.0000000 )       ( -0.2500000 )


      isym = 14     180 deg rotation - cart. axis [0,1,-1]       

 cryst.   s(14) = (     0          0         -1      )    f =( -0.2500000 )
                  (     0         -1          0      )       ( -0.2500000 )
                  (    -1          0          0      )       ( -0.2500000 )

 cart.    s(14) = ( -1.0000000  0.0000000  0.0000000 )    f =(  0.2500000 )
                  (  0.0000000  0.0000000 -1.0000000 )       ( -0.2500000 )
                  (  0.0000000 -1.0000000  0.0000000 )       ( -0.2500000 )


      isym = 15      90 deg rotation - cart. axis [-1,0,0]       

 cryst.   s(15) = (     0          0          1      )    f =( -0.2500000 )
                  (    -1          0          1      )       ( -0.2500000 )
                  (     0         -1          1      )       ( -0.2500000 )

 cart.    s(15) = (  1.0000000  0.0000000  0.0000000 )    f =(  0.2500000 )
                  (  0.0000000  0.0000000  1.0000000 )       ( -0.2500000 )
                  (  0.0000000 -1.0000000  0.0000000 )       ( -0.2500000 )


      isym = 16      90 deg rotation - cart. axis [1,0,0]        

 cryst.   s(16) = (     1         -1          0      )    f =( -0.2500000 )
                  (     1          0         -1      )       ( -0.2500000 )
                  (     1          0          0      )       ( -0.2500000 )

 cart.    s(16) = (  1.0000000  0.0000000  0.0000000 )    f =(  0.2500000 )
                  (  0.0000000  0.0000000 -1.0000000 )       ( -0.2500000 )
                  (  0.0000000  1.0000000  0.0000000 )       ( -0.2500000 )


      isym = 17     120 deg rotation - cart. axis [-1,-1,-1]     

 cryst.   s(17) = (    -1          0          1      )
                  (    -1          1          0      )
                  (    -1          0          0      )

 cart.    s(17) = (  0.0000000  1.0000000  0.0000000 )
                  (  0.0000000  0.0000000  1.0000000 )
                  (  1.0000000  0.0000000  0.0000000 )


      isym = 18     120 deg rotation - cart. axis [-1,1,1]       

 cryst.   s(18) = (     0          1          0      )
                  (     0          0          1      )
                  (     1          0          0      )

 cart.    s(18) = (  0.0000000 -1.0000000  0.0000000 )
                  (  0.0000000  0.0000000  1.0000000 )
                  ( -1.0000000  0.0000000  0.0000000 )


      isym = 19     120 deg rotation - cart. axis [1,1,-1]       

 cryst.   s(19) = (     1          0         -1      )
                  (     0          0         -1      )
                  (     0          1         -1      )

 cart.    s(19) = (  0.0000000  1.0000000  0.0000000 )
                  (  0.0000000  0.0000000 -1.0000000 )
                  ( -1.0000000  0.0000000  0.0000000 )


      isym = 20     120 deg rotation - cart. axis [1,-1,1]       

 cryst.   s(20) = (     0         -1          0      )
                  (     1         -1          0      )
                  (     0         -1          1      )

 cart.    s(20) = (  0.0000000 -1.0000000  0.0000000 )
                  (  0.0000000  0.0000000 -1.0000000 )
                  (  1.0000000  0.0000000  0.0000000 )


      isym = 21     120 deg rotation - cart. axis [1,1,1]        

 cryst.   s(21) = (     0          0         -1      )
                  (     0          1         -1      )
                  (     1          0         -1      )

 cart.    s(21) = (  0.0000000  0.0000000  1.0000000 )
                  (  1.0000000  0.0000000  0.0000000 )
                  (  0.0000000  1.0000000  0.0000000 )


      isym = 22     120 deg rotation - cart. axis [-1,1,-1]      

 cryst.   s(22) = (    -1          1          0      )
                  (    -1          0          0      )
                  (    -1          0          1      )

 cart.    s(22) = (  0.0000000  0.0000000  1.0000000 )
                  ( -1.0000000  0.0000000  0.0000000 )
                  (  0.0000000 -1.0000000  0.0000000 )


      isym = 23     120 deg rotation - cart. axis [1,-1,-1]      

 cryst.   s(23) = (     0          0          1      )
                  (     1          0          0      )
                  (     0          1          0      )

 cart.    s(23) = (  0.0000000  0.0000000 -1.0000000 )
                  ( -1.0000000  0.0000000  0.0000000 )
                  (  0.0000000  1.0000000  0.0000000 )


      isym = 24     120 deg rotation - cart. axis [-1,-1,1]      

 cryst.   s(24) = (     1         -1          0      )
                  (     0         -1          1      )
                  (     0         -1          0      )

 cart.    s(24) = (  0.0000000  0.0000000 -1.0000000 )
                  (  1.0000000  0.0000000  0.0000000 )
                  (  0.0000000 -1.0000000  0.0000000 )


      isym = 25     inversion                                    

 cryst.   s(25) = (    -1          0          0      )    f =( -0.2500000 )
                  (     0         -1          0      )       ( -0.2500000 )
                  (     0          0         -1      )       ( -0.2500000 )

 cart.    s(25) = ( -1.0000000  0.0000000  0.0000000 )    f =(  0.2500000 )
                  (  0.0000000 -1.0000000  0.0000000 )       ( -0.2500000 )
                  (  0.0000000  0.0000000 -1.0000000 )       ( -0.2500000 )


      isym = 26     inv. 180 deg rotation - cart. axis [0,0,1]   

 cryst.   s(26) = (     0         -1          1      )    f =( -0.2500000 )
                  (    -1          0          1      )       ( -0.2500000 )
                  (     0          0          1      )       ( -0.2500000 )

 cart.    s(26) = (  1.0000000  0.0000000  0.0000000 )    f =(  0.2500000 )
                  (  0.0000000  1.0000000  0.0000000 )       ( -0.2500000 )
                  (  0.0000000  0.0000000 -1.0000000 )       ( -0.2500000 )


      isym = 27     inv. 180 deg rotation - cart. axis [0,1,0]   

 cryst.   s(27) = (     1          0          0      )    f =( -0.2500000 )
                  (     1          0         -1      )       ( -0.2500000 )
                  (     1         -1          0      )       ( -0.2500000 )

 cart.    s(27) = (  1.0000000  0.0000000  0.0000000 )    f =(  0.2500000 )
                  (  0.0000000 -1.0000000  0.0000000 )       ( -0.2500000 )
                  (  0.0000000  0.0000000  1.0000000 )       ( -0.2500000 )


      isym = 28     inv. 180 deg rotation - cart. axis [1,0,0]   

 cryst.   s(28) = (     0          1         -1      )    f =( -0.2500000 )
                  (     0          1          0      )       ( -0.2500000 )
                  (    -1          1          0      )       ( -0.2500000 )

 cart.    s(28) = ( -1.0000000  0.0000000  0.0000000 )    f =(  0.2500000 )
                  (  0.0000000  1.0000000  0.0000000 )       ( -0.2500000 )
                  (  0.0000000  0.0000000  1.0000000 )       ( -0.2500000 )


      isym = 29     inv. 180 deg rotation - cart. axis [1,1,0]   

 cryst.   s(29) = (     0          1          0      )
                  (     1          0          0      )
                  (     0          0          1      )

 cart.    s(29) = (  0.0000000 -1.0000000  0.0000000 )
                  ( -1.0000000  0.0000000  0.0000000 )
                  (  0.0000000  0.0000000  1.0000000 )


      isym = 30     inv. 180 deg rotation - cart. axis [1,-1,0]  

 cryst.   s(30) = (     1          0         -1      )
                  (     0          1         -1      )
                  (     0          0         -1      )

 cart.    s(30) = (  0.0000000  1.0000000  0.0000000 )
                  (  1.0000000  0.0000000  0.0000000 )
                  (  0.0000000  0.0000000  1.0000000 )


      isym = 31     inv.  90 deg rotation - cart. axis [0,0,-1]  

 cryst.   s(31) = (     0         -1          0      )
                  (     0         -1          1      )
                  (     1         -1          0      )

 cart.    s(31) = (  0.0000000 -1.0000000  0.0000000 )
                  (  1.0000000  0.0000000  0.0000000 )
                  (  0.0000000  0.0000000 -1.0000000 )


      isym = 32     inv.  90 deg rotation - cart. axis [0,0,1]   

 cryst.   s(32) = (    -1          0          1      )
                  (    -1          0          0      )
                  (    -1          1          0      )

 cart.    s(32) = (  0.0000000  1.0000000  0.0000000 )
                  ( -1.0000000  0.0000000  0.0000000 )
                  (  0.0000000  0.0000000 -1.0000000 )


      isym = 33     inv. 180 deg rotation - cart. axis [1,0,1]   

 cryst.   s(33) = (     1          0          0      )
                  (     0          0          1      )
                  (     0          1          0      )

 cart.    s(33) = (  0.0000000  0.0000000 -1.0000000 )
                  (  0.0000000  1.0000000  0.0000000 )
                  ( -1.0000000  0.0000000  0.0000000 )


      isym = 34     inv. 180 deg rotation - cart. axis [-1,0,1]  

 cryst.   s(34) = (    -1          0          0      )
                  (    -1          1          0      )
                  (    -1          0          1      )

 cart.    s(34) = (  0.0000000  0.0000000  1.0000000 )
                  (  0.0000000  1.0000000  0.0000000 )
                  (  1.0000000  0.0000000  0.0000000 )


      isym = 35     inv.  90 deg rotation - cart. axis [0,1,0]   

 cryst.   s(35) = (     0         -1          1      )
                  (     1         -1          0      )
                  (     0         -1          0      )

 cart.    s(35) = (  0.0000000  0.0000000 -1.0000000 )
                  (  0.0000000 -1.0000000  0.0000000 )
                  (  1.0000000  0.0000000  0.0000000 )


      isym = 36     inv.  90 deg rotation - cart. axis [0,-1,0]  

 cryst.   s(36) = (     0          1         -1      )
                  (     0          0         -1      )
                  (     1          0         -1      )

 cart.    s(36) = (  0.0000000  0.0000000  1.0000000 )
                  (  0.0000000 -1.0000000  0.0000000 )
                  ( -1.0000000  0.0000000  0.0000000 )


      isym = 37     inv. 180 deg rotation - cart. axis [0,1,1]   

 cryst.   s(37) = (     1         -1          0      )
                  (     0         -1          0      )
                  (     0         -1          1      )

 cart.    s(37) = (  1.0000000  0.0000000  0.0000000 )
                  (  0.0000000  0.0000000 -1.0000000 )
                  (  0.0000000 -1.0000000  0.0000000 )


      isym = 38     inv. 180 deg rotation - cart. axis [0,1,-1]  

 cryst.   s(38) = (     0          0          1      )
                  (     0          1          0      )
                  (     1          0          0      )

 cart.    s(38) = (  1.0000000  0.0000000  0.0000000 )
                  (  0.0000000  0.0000000  1.0000000 )
                  (  0.0000000  1.0000000  0.0000000 )


      isym = 39     inv.  90 deg rotation - cart. axis [-1,0,0]  

 cryst.   s(39) = (     0          0         -1      )
                  (     1          0         -1      )
                  (     0          1         -1      )

 cart.    s(39) = ( -1.0000000  0.0000000  0.0000000 )
                  (  0.0000000  0.0000000 -1.0000000 )
                  (  0.0000000  1.0000000  0.0000000 )


      isym = 40     inv.  90 deg rotation - cart. axis [1,0,0]   

 cryst.   s(40) = (    -1          1          0      )
                  (    -1          0          1      )
                  (    -1          0          0      )

 cart.    s(40) = ( -1.0000000  0.0000000  0.0000000 )
                  (  0.0000000  0.0000000  1.0000000 )
                  (  0.0000000 -1.0000000  0.0000000 )


      isym = 41     inv. 120 deg rotation - cart. axis [-1,-1,-1]

 cryst.   s(41) = (     1          0         -1      )    f =( -0.2500000 )
                  (     1         -1          0      )       ( -0.2500000 )
                  (     1          0          0      )       ( -0.2500000 )

 cart.    s(41) = (  0.0000000 -1.0000000  0.0000000 )    f =(  0.2500000 )
                  (  0.0000000  0.0000000 -1.0000000 )       ( -0.2500000 )
                  ( -1.0000000  0.0000000  0.0000000 )       ( -0.2500000 )


      isym = 42     inv. 120 deg rotation - cart. axis [-1,1,1]  

 cryst.   s(42) = (     0         -1          0      )    f =( -0.2500000 )
                  (     0          0         -1      )       ( -0.2500000 )
                  (    -1          0          0      )       ( -0.2500000 )

 cart.    s(42) = (  0.0000000  1.0000000  0.0000000 )    f =(  0.2500000 )
                  (  0.0000000  0.0000000 -1.0000000 )       ( -0.2500000 )
                  (  1.0000000  0.0000000  0.0000000 )       ( -0.2500000 )


      isym = 43     inv. 120 deg rotation - cart. axis [1,1,-1]  

 cryst.   s(43) = (    -1          0          1      )    f =( -0.2500000 )
                  (     0          0          1      )       ( -0.2500000 )
                  (     0         -1          1      )       ( -0.2500000 )

 cart.    s(43) = (  0.0000000 -1.0000000  0.0000000 )    f =(  0.2500000 )
                  (  0.0000000  0.0000000  1.0000000 )       ( -0.2500000 )
                  (  1.0000000  0.0000000  0.0000000 )       ( -0.2500000 )


      isym = 44     inv. 120 deg rotation - cart. axis [1,-1,1]  

 cryst.   s(44) = (     0          1          0      )    f =( -0.2500000 )
                  (    -1          1          0      )       ( -0.2500000 )
                  (     0          1         -1      )       ( -0.2500000 )

 cart.    s(44) = (  0.0000000  1.0000000  0.0000000 )    f =(  0.2500000 )
                  (  0.0000000  0.0000000  1.0000000 )       ( -0.2500000 )
                  ( -1.0000000  0.0000000  0.0000000 )       ( -0.2500000 )


      isym = 45     inv. 120 deg rotation - cart. axis [1,1,1]   

 cryst.   s(45) = (     0          0          1      )    f =( -0.2500000 )
                  (     0         -1          1      )       ( -0.2500000 )
                  (    -1          0          1      )       ( -0.2500000 )

 cart.    s(45) = (  0.0000000  0.0000000 -1.0000000 )    f =(  0.2500000 )
                  ( -1.0000000  0.0000000  0.0000000 )       ( -0.2500000 )
                  (  0.0000000 -1.0000000  0.0000000 )       ( -0.2500000 )


      isym = 46     inv. 120 deg rotation - cart. axis [-1,1,-1] 

 cryst.   s(46) = (     1         -1          0      )    f =( -0.2500000 )
                  (     1          0          0      )       ( -0.2500000 )
                  (     1          0         -1      )       ( -0.2500000 )

 cart.    s(46) = (  0.0000000  0.0000000 -1.0000000 )    f =(  0.2500000 )
                  (  1.0000000  0.0000000  0.0000000 )       ( -0.2500000 )
                  (  0.0000000  1.0000000  0.0000000 )       ( -0.2500000 )


      isym = 47     inv. 120 deg rotation - cart. axis [1,-1,-1] 

 cryst.   s(47) = (     0          0         -1      )    f =( -0.2500000 )
                  (    -1          0          0      )       ( -0.2500000 )
                  (     0         -1          0      )       ( -0.2500000 )

 cart.    s(47) = (  0.0000000  0.0000000  1.0000000 )    f =(  0.2500000 )
                  (  1.0000000  0.0000000  0.0000000 )       ( -0.2500000 )
                  (  0.0000000 -1.0000000  0.0000000 )       ( -0.2500000 )


      isym = 48     inv. 120 deg rotation - cart. axis [-1,-1,1] 

 cryst.   s(48) = (    -1          1          0      )    f =( -0.2500000 )
                  (     0          1         -1      )       ( -0.2500000 )
                  (     0          1          0      )       ( -0.2500000 )

 cart.    s(48) = (  0.0000000  0.0000000  1.0000000 )    f =(  0.2500000 )
                  ( -1.0000000  0.0000000  0.0000000 )       ( -0.2500000 )
                  (  0.0000000  1.0000000  0.0000000 )       ( -0.2500000 )


     point group O_h (m-3m) 
     there are 10 classes
     the character table:

       E     8C3   3C2   6C4   6C2'  i     8S6   3s_h  6S4   6s_d 
A_1g   1.00  1.00  1.00  1.00  1.00  1.00  1.00  1.00  1.00  1.00
A_2g   1.00  1.00  1.00 -1.00 -1.00  1.00  1.00  1.00 -1.00 -1.00
E_g    2.00 -1.00  2.00  0.00  0.00  2.00 -1.00  2.00  0.00  0.00
T_1g   3.00  0.00 -1.00  1.00 -1.00  3.00  0.00 -1.00  1.00 -1.00
T_2g   3.00  0.00 -1.00 -1.00  1.00  3.00  0.00 -1.00 -1.00  1.00
A_1u   1.00  1.00  1.00  1.00  1.00 -1.00 -1.00 -1.00 -1.00 -1.00
A_2u   1.00  1.00  1.00 -1.00 -1.00 -1.00 -1.00 -1.00  1.00  1.00
E_u    2.00 -1.00  2.00  0.00  0.00 -2.00  1.00 -2.00  0.00  0.00
T_1u   3.00  0.00 -1.00  1.00 -1.00 -3.00  0.00  1.00 -1.00  1.00
T_2u   3.00  0.00 -1.00 -1.00  1.00 -3.00  0.00  1.00  1.00 -1.00

     the symmetry operations in each class and the name of the first element:

     E        1
          identity                                               
     8C3     17   19   20   18   24   21   22   23
          120 deg rotation - cart. axis [-1,-1,-1]               
     3C2      2    4    3
          180 deg rotation - cart. axis [0,0,1]                  
     6C4      7    8   15   16   12   11
           90 deg rotation - cart. axis [0,0,-1]                 
     6C2'     5    6   14   13   10    9
          180 deg rotation - cart. axis [1,1,0]                  
     i       25
          inversion                                              
     8S6     41   43   44   42   48   45   46   47
          inv. 120 deg rotation - cart. axis [-1,-1,-1]          
     3s_h    26   28   27
          inv. 180 deg rotation - cart. axis [0,0,1]             
     6S4     31   32   39   40   36   35
          inv.  90 deg rotation - cart. axis [0,0,-1]            
     6s_d    29   30   38   37   34   33
          inv. 180 deg rotation - cart. axis [1,1,0]             

   Cartesian axes

     site n.     atom                  positions (alat units)
         1           Si  tau(   1) = (   0.0000000   0.0000000   0.0000000  )
         2           Si  tau(   2) = (  -0.2500000   0.2500000   0.2500000  )

   Crystallographic axes

     site n.     atom                  positions (cryst. coord.)
         1           Si  tau(   1) = (  0.0000000  0.0000000  0.0000000  )
         2           Si  tau(   2) = (  0.2500000  0.2500000  0.2500000  )

     number of k points=    81
                       cart. coord. in units 2pi/alat
        k(    1) = (  -0.5000000   0.5000000   0.5000000), wk =   0.0246914
        k(    2) = (  -0.4750000   0.4750000   0.4750000), wk =   0.0246914
        k(    3) = (  -0.4500000   0.4500000   0.4500000), wk =   0.0246914
        k(    4) = (  -0.4250000   0.4250000   0.4250000), wk =   0.0246914
        k(    5) = (  -0.4000000   0.4000000   0.4000000), wk =   0.0246914
        k(    6) = (  -0.3750000   0.3750000   0.3750000), wk =   0.0246914
        k(    7) = (  -0.3500000   0.3500000   0.3500000), wk =   0.0246914
        k(    8) = (  -0.3250000   0.3250000   0.3250000), wk =   0.0246914
        k(    9) = (  -0.3000000   0.3000000   0.3000000), wk =   0.0246914
        k(   10) = (  -0.2750000   0.2750000   0.2750000), wk =   0.0246914
        k(   11) = (  -0.2500000   0.2500000   0.2500000), wk =   0.0246914
        k(   12) = (  -0.2250000   0.2250000   0.2250000), wk =   0.0246914
        k(   13) = (  -0.2000000   0.2000000   0.2000000), wk =   0.0246914
        k(   14) = (  -0.1750000   0.1750000   0.1750000), wk =   0.0246914
        k(   15) = (  -0.1500000   0.1500000   0.1500000), wk =   0.0246914
        k(   16) = (  -0.1250000   0.1250000   0.1250000), wk =   0.0246914
        k(   17) = (  -0.1000000   0.1000000   0.1000000), wk =   0.0246914
        k(   18) = (  -0.0750000   0.0750000   0.0750000), wk =   0.0246914
        k(   19) = (  -0.0500000   0.0500000   0.0500000), wk =   0.0246914
        k(   20) = (  -0.0250000   0.0250000   0.0250000), wk =   0.0246914
        k(   21) = (   0.0000000   0.0000000   0.0000000), wk =   0.0246914
        k(   22) = (  -0.0500000   0.0000000   0.0000000), wk =   0.0246914
        k(   23) = (  -0.1000000   0.0000000   0.0000000), wk =   0.0246914
        k(   24) = (  -0.1500000   0.0000000   0.0000000), wk =   0.0246914
        k(   25) = (  -0.2000000   0.0000000   0.0000000), wk =   0.0246914
        k(   26) = (  -0.2500000   0.0000000   0.0000000), wk =   0.0246914
        k(   27) = (  -0.3000000   0.0000000   0.0000000), wk =   0.0246914
        k(   28) = (  -0.3500000   0.0000000   0.0000000), wk =   0.0246914
        k(   29) = (  -0.4000000   0.0000000   0.0000000), wk =   0.0246914
        k(   30) = (  -0.4500000   0.0000000   0.0000000), wk =   0.0246914
        k(   31) = (  -0.5000000   0.0000000   0.0000000), wk =   0.0246914
        k(   32) = (  -0.5500000   0.0000000   0.0000000), wk =   0.0246914
        k(   33) = (  -0.6000000   0.0000000   0.0000000), wk =   0.0246914
        k(   34) = (  -0.6500000   0.0000000   0.0000000), wk =   0.0246914
        k(   35) = (  -0.7000000   0.0000000   0.0000000), wk =   0.0246914
        k(   36) = (  -0.7500000   0.0000000   0.0000000), wk =   0.0246914
        k(   37) = (  -0.8000000   0.0000000   0.0000000), wk =   0.0246914
        k(   38) = (  -0.8500000   0.0000000   0.0000000), wk =   0.0246914
        k(   39) = (  -0.9000000   0.0000000   0.0000000), wk =   0.0246914
        k(   40) = (  -0.9500000   0.0000000   0.0000000), wk =   0.0246914
        k(   41) = (  -1.0000000   0.0000000   0.0000000), wk =   0.0246914
        k(   42) = (  -0.9875000   0.0375000   0.0000000), wk =   0.0246914
        k(   43) = (  -0.9750000   0.0750000   0.0000000), wk =   0.0246914
        k(   44) = (  -0.9625000   0.1125000   0.0000000), wk =   0.0246914
        k(   45) = (  -0.9500000   0.1500000  -0.0000000), wk =   0.0246914
        k(   46) = (  -0.9375000   0.1875000   0.0000000), wk =   0.0246914
        k(   47) = (  -0.9250000   0.2250000   0.0000000), wk =   0.0246914
        k(   48) = (  -0.9125000   0.2625000   0.0000000), wk =   0.0246914
        k(   49) = (  -0.9000000   0.3000000   0.0000000), wk =   0.0246914
        k(   50) = (  -0.8875000   0.3375000   0.0000000), wk =   0.0246914
        k(   51) = (  -0.8750000   0.3750000   0.0000000), wk =   0.0246914
        k(   52) = (  -0.8625000   0.4125000   0.0000000), wk =   0.0246914
        k(   53) = (  -0.8500000   0.4500000   0.0000000), wk =   0.0246914
        k(   54) = (  -0.8375000   0.4875000   0.0000000), wk =   0.0246914
        k(   55) = (  -0.8250000   0.5250000   0.0000000), wk =   0.0246914
        k(   56) = (  -0.8125000   0.5625000  -0.0000000), wk =   0.0246914
        k(   57) = (  -0.8000000   0.6000000   0.0000000), wk =   0.0246914
        k(   58) = (  -0.7875000   0.6375000  -0.0000000), wk =   0.0246914
        k(   59) = (  -0.7750000   0.6750000   0.0000000), wk =   0.0246914
        k(   60) = (  -0.7625000   0.7125000  -0.0000000), wk =   0.0246914
        k(   61) = (  -0.7500000   0.7500000   0.0000000), wk =   0.0246914
        k(   62) = (  -0.7125000   0.7125000   0.0000000), wk =   0.0246914
        k(   63) = (  -0.6750000   0.6750000   0.0000000), wk =   0.0246914
        k(   64) = (  -0.6375000   0.6375000   0.0000000), wk =   0.0246914
        k(   65) = (  -0.6000000   0.6000000   0.0000000), wk =   0.0246914
        k(   66) = (  -0.5625000   0.5625000   0.0000000), wk =   0.0246914
        k(   67) = (  -0.5250000   0.5250000   0.0000000), wk =   0.0246914
        k(   68) = (  -0.4875000   0.4875000   0.0000000), wk =   0.0246914
        k(   69) = (  -0.4500000   0.4500000   0.0000000), wk =   0.0246914
        k(   70) = (  -0.4125000   0.4125000   0.0000000), wk =   0.0246914
        k(   71) = (  -0.3750000   0.3750000   0.0000000), wk =   0.0246914
        k(   72) = (  -0.3375000   0.3375000   0.0000000), wk =   0.0246914
        k(   73) = (  -0.3000000   0.3000000   0.0000000), wk =   0.0246914
        k(   74) = (  -0.2625000   0.2625000   0.0000000), wk =   0.0246914
        k(   75) = (  -0.2250000   0.2250000   0.0000000), wk =   0.0246914
        k(   76) = (  -0.1875000   0.1875000   0.0000000), wk =   0.0246914
        k(   77) = (  -0.1500000   0.1500000   0.0000000), wk =   0.0246914
        k(   78) = (  -0.1125000   0.1125000   0.0000000), wk =   0.0246914
        k(   79) = (  -0.0750000   0.0750000   0.0000000), wk =   0.0246914
        k(   80) = (  -0.0375000   0.0375000   0.0000000), wk =   0.0246914
        k(   81) = (   0.0000000   0.0000000   0.0000000), wk =   0.0246914

                       cryst. coord.
        k(    1) = (   0.5000000   0.5000000   0.5000000), wk =   0.0246914
        k(    2) = (   0.4750000   0.4750000   0.4750000), wk =   0.0246914
        k(    3) = (   0.4500000   0.4500000   0.4500000), wk =   0.0246914
        k(    4) = (   0.4250000   0.4250000   0.4250000), wk =   0.0246914
        k(    5) = (   0.4000000   0.4000000   0.4000000), wk =   0.0246914
        k(    6) = (   0.3750000   0.3750000   0.3750000), wk =   0.0246914
        k(    7) = (   0.3500000   0.3500000   0.3500000), wk =   0.0246914
        k(    8) = (   0.3250000   0.3250000   0.3250000), wk =   0.0246914
        k(    9) = (   0.3000000   0.3000000   0.3000000), wk =   0.0246914
        k(   10) = (   0.2750000   0.2750000   0.2750000), wk =   0.0246914
        k(   11) = (   0.2500000   0.2500000   0.2500000), wk =   0.0246914
        k(   12) = (   0.2250000   0.2250000   0.2250000), wk =   0.0246914
        k(   13) = (   0.2000000   0.2000000   0.2000000), wk =   0.0246914
        k(   14) = (   0.1750000   0.1750000   0.1750000), wk =   0.0246914
        k(   15) = (   0.1500000   0.1500000   0.1500000), wk =   0.0246914
        k(   16) = (   0.1250000   0.1250000   0.1250000), wk =   0.0246914
        k(   17) = (   0.1000000   0.1000000   0.1000000), wk =   0.0246914
        k(   18) = (   0.0750000   0.0750000   0.0750000), wk =   0.0246914
        k(   19) = (   0.0500000   0.0500000   0.0500000), wk =   0.0246914
        k(   20) = (   0.0250000   0.0250000   0.0250000), wk =   0.0246914
        k(   21) = (   0.0000000   0.0000000   0.0000000), wk =   0.0246914
        k(   22) = (   0.0250000   0.0000000   0.0250000), wk =   0.0246914
        k(   23) = (   0.0500000   0.0000000   0.0500000), wk =   0.0246914
        k(   24) = (   0.0750000   0.0000000   0.0750000), wk =   0.0246914
        k(   25) = (   0.1000000   0.0000000   0.1000000), wk =   0.0246914
        k(   26) = (   0.1250000   0.0000000   0.1250000), wk =   0.0246914
        k(   27) = (   0.1500000   0.0000000   0.1500000), wk =   0.0246914
        k(   28) = (   0.1750000   0.0000000   0.1750000), wk =   0.0246914
        k(   29) = (   0.2000000   0.0000000   0.2000000), wk =   0.0246914
        k(   30) = (   0.2250000   0.0000000   0.2250000), wk =   0.0246914
        k(   31) = (   0.2500000   0.0000000   0.2500000), wk =   0.0246914
        k(   32) = (   0.2750000   0.0000000   0.2750000), wk =   0.0246914
        k(   33) = (   0.3000000   0.0000000   0.3000000), wk =   0.0246914
        k(   34) = (   0.3250000   0.0000000   0.3250000), wk =   0.0246914
        k(   35) = (   0.3500000   0.0000000   0.3500000), wk =   0.0246914
        k(   36) = (   0.3750000   0.0000000   0.3750000), wk =   0.0246914
        k(   37) = (   0.4000000   0.0000000   0.4000000), wk =   0.0246914
        k(   38) = (   0.4250000   0.0000000   0.4250000), wk =   0.0246914
        k(   39) = (   0.4500000   0.0000000   0.4500000), wk =   0.0246914
        k(   40) = (   0.4750000   0.0000000   0.4750000), wk =   0.0246914
        k(   41) = (   0.5000000   0.0000000   0.5000000), wk =   0.0246914
        k(   42) = (   0.4937500   0.0187500   0.5125000), wk =   0.0246914
        k(   43) = (   0.4875000   0.0375000   0.5250000), wk =   0.0246914
        k(   44) = (   0.4812500   0.0562500   0.5375000), wk =   0.0246914
        k(   45) = (   0.4750000   0.0750000   0.5500000), wk =   0.0246914
        k(   46) = (   0.4687500   0.0937500   0.5625000), wk =   0.0246914
        k(   47) = (   0.4625000   0.1125000   0.5750000), wk =   0.0246914
        k(   48) = (   0.4562500   0.1312500   0.5875000), wk =   0.0246914
        k(   49) = (   0.4500000   0.1500000   0.6000000), wk =   0.0246914
        k(   50) = (   0.4437500   0.1687500   0.6125000), wk =   0.0246914
        k(   51) = (   0.4375000   0.1875000   0.6250000), wk =   0.0246914
        k(   52) = (   0.4312500   0.2062500   0.6375000), wk =   0.0246914
        k(   53) = (   0.4250000   0.2250000   0.6500000), wk =   0.0246914
        k(   54) = (   0.4187500   0.2437500   0.6625000), wk =   0.0246914
        k(   55) = (   0.4125000   0.2625000   0.6750000), wk =   0.0246914
        k(   56) = (   0.4062500   0.2812500   0.6875000), wk =   0.0246914
        k(   57) = (   0.4000000   0.3000000   0.7000000), wk =   0.0246914
        k(   58) = (   0.3937500   0.3187500   0.7125000), wk =   0.0246914
        k(   59) = (   0.3875000   0.3375000   0.7250000), wk =   0.0246914
        k(   60) = (   0.3812500   0.3562500   0.7375000), wk =   0.0246914
        k(   61) = (   0.3750000   0.3750000   0.7500000), wk =   0.0246914
        k(   62) = (   0.3562500   0.3562500   0.7125000), wk =   0.0246914
        k(   63) = (   0.3375000   0.3375000   0.6750000), wk =   0.0246914
        k(   64) = (   0.3187500   0.3187500   0.6375000), wk =   0.0246914
        k(   65) = (   0.3000000   0.3000000   0.6000000), wk =   0.0246914
        k(   66) = (   0.2812500   0.2812500   0.5625000), wk =   0.0246914
        k(   67) = (   0.2625000   0.2625000   0.5250000), wk =   0.0246914
        k(   68) = (   0.2437500   0.2437500   0.4875000), wk =   0.0246914
        k(   69) = (   0.2250000   0.2250000   0.4500000), wk =   0.0246914
        k(   70) = (   0.2062500   0.2062500   0.4125000), wk =   0.0246914
        k(   71) = (   0.1875000   0.1875000   0.3750000), wk =   0.0246914
        k(   72) = (   0.1687500   0.1687500   0.3375000), wk =   0.0246914
        k(   73) = (   0.1500000   0.1500000   0.3000000), wk =   0.0246914
        k(   74) = (   0.1312500   0.1312500   0.2625000), wk =   0.0246914
        k(   75) = (   0.1125000   0.1125000   0.2250000), wk =   0.0246914
        k(   76) = (   0.0937500   0.0937500   0.1875000), wk =   0.0246914
        k(   77) = (   0.0750000   0.0750000   0.1500000), wk =   0.0246914
        k(   78) = (   0.0562500   0.0562500   0.1125000), wk =   0.0246914
        k(   79) = (   0.0375000   0.0375000   0.0750000), wk =   0.0246914
        k(   80) = (   0.0187500   0.0187500   0.0375000), wk =   0.0246914
        k(   81) = (   0.0000000   0.0000000   0.0000000), wk =   0.0246914

     Dense  grid:     9257 G-vectors     FFT dimensions: (  32,  32,  32)

     Dynamical RAM for                 wfc:       0.21 MB

     Dynamical RAM for     wfc (w. buffer):       0.21 MB

     Dynamical RAM for           str. fact:       0.14 MB

     Dynamical RAM for           local pot:       0.00 MB

     Dynamical RAM for          nlocal pot:       0.28 MB

     Dynamical RAM for                qrad:       0.29 MB

     Dynamical RAM for          rho,v,vnew:       1.17 MB

     Dynamical RAM for           G-vectors:       0.60 MB

     Dynamical RAM for          h,s,v(r/c):       0.03 MB

     Dynamical RAM for          <psi|beta>:       0.00 MB

     Dynamical RAM for                 psi:       0.42 MB

     Dynamical RAM for                hpsi:       0.42 MB

     Dynamical RAM for      wfcinit/wfcrot:       0.43 MB

     Estimated static dynamical RAM per process >       4.23 MB

     Estimated max dynamical RAM per process >       5.11 MB

     The potential is recalculated from file :
     ./out/si.save/charge-density

     Starting wfcs are random

     Band Structure Calculation
     Davidson diagonalization with overlap

     Computing kpt #:     1  of    81
     total cpu time spent up to now is        0.4 secs

     Computing kpt #:     2  of    81
     total cpu time spent up to now is        0.6 secs

     Computing kpt #:     3  of    81
     total cpu time spent up to now is        0.8 secs

     Computing kpt #:     4  of    81
     total cpu time spent up to now is        0.9 secs

     Computing kpt #:     5  of    81
     total cpu time spent up to now is        1.1 secs

     Computing kpt #:     6  of    81
     total cpu time spent up to now is        1.2 secs

     Computing kpt #:     7  of    81
     total cpu time spent up to now is        1.4 secs

     Computing kpt #:     8  of    81
     total cpu time spent up to now is        1.6 secs

     Computing kpt #:     9  of    81
     total cpu time spent up to now is        1.7 secs

     Computing kpt #:    10  of    81
     total cpu time spent up to now is        1.9 secs

     Computing kpt #:    11  of    81
     total cpu time spent up to now is        2.0 secs

     Computing kpt #:    12  of    81
     total cpu time spent up to now is        2.2 secs

     Computing kpt #:    13  of    81
     total cpu time spent up to now is        2.3 secs

     Computing kpt #:    14  of    81
     total cpu time spent up to now is        2.5 secs

     Computing kpt #:    15  of    81
     total cpu time spent up to now is        2.7 secs

     Computing kpt #:    16  of    81
     total cpu time spent up to now is        2.8 secs

     Computing kpt #:    17  of    81
     total cpu time spent up to now is        3.0 secs

     Computing kpt #:    18  of    81
     total cpu time spent up to now is        3.2 secs

     Computing kpt #:    19  of    81
     total cpu time spent up to now is        3.4 secs

     Computing kpt #:    20  of    81
     total cpu time spent up to now is        3.5 secs

     Computing kpt #:    21  of    81
     total cpu time spent up to now is        3.7 secs

     Computing kpt #:    22  of    81
     total cpu time spent up to now is        3.9 secs

     Computing kpt #:    23  of    81
     total cpu time spent up to now is        4.1 secs

     Computing kpt #:    24  of    81
     total cpu time spent up to now is        4.2 secs

     Computing kpt #:    25  of    81
     total cpu time spent up to now is        4.4 secs

     Computing kpt #:    26  of    81
     total cpu time spent up to now is        4.5 secs

     Computing kpt #:    27  of    81
     total cpu time spent up to now is        4.7 secs

     Computing kpt #:    28  of    81
     total cpu time spent up to now is        4.9 secs

     Computing kpt #:    29  of    81
     total cpu time spent up to now is        5.0 secs

     Computing kpt #:    30  of    81
     total cpu time spent up to now is        5.2 secs

     Computing kpt #:    31  of    81
     total cpu time spent up to now is        5.4 secs

     Computing kpt #:    32  of    81
     total cpu time spent up to now is        5.5 secs

     Computing kpt #:    33  of    81
     total cpu time spent up to now is        5.7 secs

     Computing kpt #:    34  of    81
     total cpu time spent up to now is        5.9 secs

     Computing kpt #:    35  of    81
     total cpu time spent up to now is        6.1 secs

     Computing kpt #:    36  of    81
     total cpu time spent up to now is        6.2 secs

     Computing kpt #:    37  of    81
     total cpu time spent up to now is        6.4 secs

     Computing kpt #:    38  of    81
     total cpu time spent up to now is        6.6 secs

     Computing kpt #:    39  of    81
     total cpu time spent up to now is        6.7 secs

     Computing kpt #:    40  of    81
     total cpu time spent up to now is        6.9 secs

     Computing kpt #:    41  of    81
     total cpu time spent up to now is        7.1 secs

     Computing kpt #:    42  of    81
     total cpu time spent up to now is        7.3 secs

     Computing kpt #:    43  of    81
     total cpu time spent up to now is        7.5 secs

     Computing kpt #:    44  of    81
     total cpu time spent up to now is        7.7 secs

     Computing kpt #:    45  of    81
     total cpu time spent up to now is        7.9 secs

     Computing kpt #:    46  of    81
     total cpu time spent up to now is        8.1 secs

     Computing kpt #:    47  of    81
     total cpu time spent up to now is        8.2 secs

     Computing kpt #:    48  of    81
     total cpu time spent up to now is        8.4 secs

     Computing kpt #:    49  of    81
     total cpu time spent up to now is        8.6 secs

     Computing kpt #:    50  of    81
     total cpu time spent up to now is        8.7 secs

     Computing kpt #:    51  of    81
     total cpu time spent up to now is        8.9 secs

     Computing kpt #:    52  of    81
     total cpu time spent up to now is        9.1 secs

     Computing kpt #:    53  of    81
     total cpu time spent up to now is        9.2 secs

     Computing kpt #:    54  of    81
     total cpu time spent up to now is        9.4 secs

     Computing kpt #:    55  of    81
     total cpu time spent up to now is        9.6 secs

     Computing kpt #:    56  of    81
     total cpu time spent up to now is        9.8 secs

     Computing kpt #:    57  of    81
     total cpu time spent up to now is       10.0 secs

     Computing kpt #:    58  of    81
     total cpu time spent up to now is       10.2 secs

     Computing kpt #:    59  of    81
     total cpu time spent up to now is       10.5 secs

     Computing kpt #:    60  of    81
     total cpu time spent up to now is       10.7 secs

     Computing kpt #:    61  of    81
     total cpu time spent up to now is       10.9 secs

     Computing kpt #:    62  of    81
     total cpu time spent up to now is       11.1 secs

     Computing kpt #:    63  of    81
     total cpu time spent up to now is       11.3 secs

     Computing kpt #:    64  of    81
     total cpu time spent up to now is       11.5 secs

     Computing kpt #:    65  of    81
     total cpu time spent up to now is       11.6 secs

     Computing kpt #:    66  of    81
     total cpu time spent up to now is       11.8 secs

     Computing kpt #:    67  of    81
     total cpu time spent up to now is       12.0 secs

     Computing kpt #:    68  of    81
     total cpu time spent up to now is       12.2 secs

     Computing kpt #:    69  of    81
     total cpu time spent up to now is       12.4 secs

     Computing kpt #:    70  of    81
     total cpu time spent up to now is       12.5 secs

     Computing kpt #:    71  of    81
     total cpu time spent up to now is       12.7 secs

     Computing kpt #:    72  of    81
     total cpu time spent up to now is       12.8 secs

     Computing kpt #:    73  of    81
     total cpu time spent up to now is       13.0 secs

     Computing kpt #:    74  of    81
     total cpu time spent up to now is       13.2 secs

     Computing kpt #:    75  of    81
     total cpu time spent up to now is       13.3 secs

     Computing kpt #:    76  of    81
     total cpu time spent up to now is       13.5 secs

     Computing kpt #:    77  of    81
     total cpu time spent up to now is       13.7 secs

     Computing kpt #:    78  of    81
     total cpu time spent up to now is       13.8 secs

     Computing kpt #:    79  of    81
     total cpu time spent up to now is       14.0 secs

     Computing kpt #:    80  of    81
     total cpu time spent up to now is       14.2 secs

     Computing kpt #:    81  of    81
     total cpu time spent up to now is       14.4 secs

     ethr =  2.00E-10,  avg # of iterations = 42.2

     total cpu time spent up to now is       14.4 secs

     End of band structure calculation

          k =-0.5000 0.5000 0.5000 (  1158 PWs)   bands (ev):

    -3.4065  -0.7429   5.0326   5.0326   7.7398   9.5524   9.5524  13.9386
    16.7212  16.7212  17.5401  17.5401

          k =-0.4750 0.4750 0.4750 (  1164 PWs)   bands (ev):

    -3.4419  -0.6921   5.0371   5.0371   7.7450   9.5576   9.5576  13.9467
    16.4759  16.4759  17.4107  17.8035

          k =-0.4500 0.4500 0.4500 (  1164 PWs)   bands (ev):

    -3.5405  -0.5471   5.0504   5.0504   7.7606   9.5730   9.5730  13.9702
    16.0475  16.0475  17.0959  18.2872

          k =-0.4250 0.4250 0.4250 (  1155 PWs)   bands (ev):

    -3.6850  -0.3255   5.0727   5.0727   7.7865   9.5974   9.5974  14.0072
    15.6041  15.6041  16.7044  18.8226

          k =-0.4000 0.4000 0.4000 (  1161 PWs)   bands (ev):

    -3.8574  -0.0454   5.1038   5.1038   7.8226   9.6288   9.6288  14.0521
    15.1749  15.1749  16.2896  19.3750

          k =-0.3750 0.3750 0.3750 (  1155 PWs)   bands (ev):

    -4.0437   0.2789   5.1438   5.1438   7.8687   9.6644   9.6644  14.0943
    14.7729  14.7729  15.8818  19.9288

          k =-0.3500 0.3500 0.3500 (  1155 PWs)   bands (ev):

    -4.2341   0.6372   5.1925   5.1925   7.9245   9.7000   9.7000  14.1089
    14.4030  14.4030  15.5133  20.0909

          k =-0.3250 0.3250 0.3250 (  1149 PWs)   bands (ev):

    -4.4223   1.0227   5.2497   5.2497   7.9897   9.7304   9.7304  14.0444
    14.0731  14.0731  15.2381  19.6615

          k =-0.3000 0.3000 0.3000 (  1161 PWs)   bands (ev):

    -4.6039   1.4303   5.3150   5.3150   8.0636   9.7488   9.7488  13.7887
    13.7887  13.8425  15.1131  19.1331

          k =-0.2750 0.2750 0.2750 (  1164 PWs)   bands (ev):

    -4.7761   1.8564   5.3884   5.3884   8.1456   9.7484   9.7484  13.5158
    13.5585  13.5585  15.1220  18.5801

          k =-0.2500 0.2500 0.2500 (  1164 PWs)   bands (ev):

    -4.9369   2.2980   5.4689   5.4689   8.2349   9.7225   9.7225  13.1214
    13.3893  13.3893  15.1997  18.0430

          k =-0.2250 0.2250 0.2250 (  1164 PWs)   bands (ev):

    -5.0848   2.7522   5.5560   5.5560   8.3297   9.6671   9.6671  12.6950
    13.2840  13.2840  15.2941  17.5551

          k =-0.2000 0.2000 0.2000 (  1167 PWs)   bands (ev):

    -5.2190   3.2160   5.6483   5.6483   8.4281   9.5818   9.5818  12.2532
    13.2431  13.2431  15.3573  17.1563

          k =-0.1750 0.1750 0.1750 (  1167 PWs)   bands (ev):

    -5.3386   3.6861   5.7442   5.7442   8.5276   9.4711   9.4711  11.8041
    13.2608  13.2608  15.3319  16.9031

          k =-0.1500 0.1500 0.1500 (  1173 PWs)   bands (ev):

    -5.4431   4.1579   5.8415   5.8415   8.6245   9.3430   9.3430  11.3543
    13.3274  13.3274  15.1834  16.8295

          k =-0.1250 0.1250 0.1250 (  1173 PWs)   bands (ev):

    -5.5321   4.6252   5.9371   5.9371   8.7137   9.2078   9.2078  10.9113
    13.4303  13.4303  14.9513  16.8951

          k =-0.1000 0.1000 0.1000 (  1179 PWs)   bands (ev):

    -5.6053   5.0784   6.0269   6.0269   8.7877   9.0763   9.0763  10.4876
    13.5553  13.5553  14.7019  17.0302

          k =-0.0750 0.0750 0.0750 (  1185 PWs)   bands (ev):

    -5.6624   5.5011   6.1062   6.1062   8.8352   8.9589   8.9589  10.1053
    13.6846  13.6846  14.4793  17.1839

          k =-0.0500 0.0500 0.0500 (  1167 PWs)   bands (ev):

    -5.7033   5.8661   6.1693   6.1693   8.8423   8.8661   8.8661   9.8011
    13.8009  13.8009  14.3073  17.3231

          k =-0.0250 0.0250 0.0250 (  1157 PWs)   bands (ev):

    -5.7279   6.1269   6.2101   6.2101   8.8062   8.8062   8.8099   9.6158
    13.8823  13.8823  14.1994  17.4198

          k = 0.0000 0.0000 0.0000 (  1139 PWs)   bands (ev):

    -5.7361   6.2245   6.2245   6.2245   8.7857   8.7857   8.7857   9.5576
    13.9121  13.9121  14.1627  17.4550

          k =-0.0500 0.0000 0.0000 (  1167 PWs)   bands (ev):

    -5.7252   6.1495   6.1774   6.1774   8.7582   8.8454   8.8454   9.6309
    13.8226  13.9231  14.2116  17.4732

          k =-0.1000 0.0000 0.0000 (  1171 PWs)   bands (ev):

    -5.6924   5.9429   6.0492   6.0492   8.6794   9.0138   9.0138   9.8296
    13.5838  13.9593  14.3551  17.5300

          k =-0.1500 0.0000 0.0000 (  1171 PWs)   bands (ev):

    -5.6377   5.6426   5.8654   5.8654   8.5576   9.2643   9.2643  10.1037
    13.2623  14.0197  14.5842  17.6245

          k =-0.2000 0.0000 0.0000 (  1171 PWs)   bands (ev):

    -5.5614   5.2828   5.6503   5.6503   8.4041   9.5726   9.5726  10.3895
    12.9337  14.1038  14.8872  17.7567

          k =-0.2500 0.0000 0.0000 (  1163 PWs)   bands (ev):

    -5.4633   4.8869   5.4212   5.4212   8.2304   9.9209   9.9209  10.5978
    12.6993  14.2124  15.2520  17.9254

          k =-0.3000 0.0000 0.0000 (  1163 PWs)   bands (ev):

    -5.3438   4.4690   5.1890   5.1890   8.0464  10.2973  10.2973  10.6168
    12.6775  14.3451  15.6674  18.1287

          k =-0.3500 0.0000 0.0000 (  1162 PWs)   bands (ev):

    -5.2030   4.0374   4.9611   4.9611   7.8600  10.4196  10.6944  10.6944
    12.9007  14.5019  16.1234  18.3646

          k =-0.4000 0.0000 0.0000 (  1170 PWs)   bands (ev):

    -5.0410   3.5974   4.7420   4.7420   7.6778  10.0937  11.1072  11.1072
    13.2833  14.6802  16.6110  18.6287

          k =-0.4500 0.0000 0.0000 (  1162 PWs)   bands (ev):

    -4.8581   3.1522   4.5347   4.5347   7.5048   9.7202  11.5325  11.5325
    13.7475  14.8852  17.1216  18.9132

          k =-0.5000 0.0000 0.0000 (  1174 PWs)   bands (ev):

    -4.6547   2.7041   4.3415   4.3415   7.3446   9.3382  11.9667  11.9667
    14.2523  15.1138  17.6454  19.2019

          k =-0.5500 0.0000 0.0000 (  1158 PWs)   bands (ev):

    -4.4310   2.2550   4.1639   4.1639   7.2006   8.9684  12.4102  12.4102
    14.7785  15.3674  18.1709  19.4673

          k =-0.6000 0.0000 0.0000 (  1146 PWs)   bands (ev):

    -4.1875   1.8064   4.0028   4.0028   7.0749   8.6204  12.8600  12.8600
    15.3148  15.6437  18.6824  19.6534

          k =-0.6500 0.0000 0.0000 (  1150 PWs)   bands (ev):

    -3.9246   1.3596   3.8593   3.8593   6.9696   8.2989  13.3154  13.3154
    15.8527  15.9436  19.1577  19.6838

          k =-0.7000 0.0000 0.0000 (  1158 PWs)   bands (ev):

    -3.6428   0.9161   3.7338   3.7338   6.8862   8.0072  13.7767  13.7767
    16.2672  16.3870  19.5124  19.5124

          k =-0.7500 0.0000 0.0000 (  1150 PWs)   bands (ev):

    -3.3427   0.4775   3.6270   3.6270   6.8264   7.7467  14.2431  14.2431
    16.6144  16.9132  19.1814  19.1814

          k =-0.8000 0.0000 0.0000 (  1154 PWs)   bands (ev):

    -3.0249   0.0450   3.5391   3.5391   6.7911   7.5179  14.7134  14.7134
    16.9849  17.4266  18.7581  18.7581

          k =-0.8500 0.0000 0.0000 (  1154 PWs)   bands (ev):

    -2.6902  -0.3797   3.4705   3.4705   6.7817   7.3213  15.1846  15.1846
    17.3781  17.9232  18.2935  18.2935

          k =-0.9000 0.0000 0.0000 (  1154 PWs)   bands (ev):

    -2.3394  -0.7952   3.4213   3.4213   6.7992   7.1562  15.6508  15.6508
    17.7948  17.8203  17.8203  18.3976

          k =-0.9500 0.0000 0.0000 (  1162 PWs)   bands (ev):

    -1.9735  -1.2002   3.3918   3.3918   6.8445   7.0221  16.0837  16.0837
    17.3783  17.3783  18.2337  18.8427

          k =-1.0000 0.0000 0.0000 (  1162 PWs)   bands (ev):

    -1.5933  -1.5933   3.3819   3.3819   6.9185   6.9185  16.3235  16.3235
    17.1351  17.1351  18.6960  18.6960

          k =-0.9875 0.0375 0.0000 (  1160 PWs)   bands (ev):

    -1.6874  -1.4944   3.3633   3.3641   6.9318   6.9757  16.2281  16.2662
    17.0580  17.0985  18.6416  18.8796

          k =-0.9750 0.0750 0.0000 (  1154 PWs)   bands (ev):

    -1.7754  -1.3918   3.3083   3.3150   7.0146   7.0996  15.9054  16.1346
    16.8559  17.0992  18.6248  19.0937

          k =-0.9625 0.1125 0.0000 (  1147 PWs)   bands (ev):

    -1.8567  -1.2874   3.2218   3.2432   7.1609   7.2826  15.4250  15.9463
    16.6119  17.1669  18.5785  19.2637

          k =-0.9500 0.1500-0.0000 (  1146 PWs)   bands (ev):

    -1.9305  -1.1831   3.1115   3.1593   7.3625   7.5160  14.8741  15.6965
    16.3855  17.2605  18.5169  19.4103

          k =-0.9375 0.1875 0.0000 (  1154 PWs)   bands (ev):

    -1.9965  -1.0815   2.9855   3.0735   7.6104   7.7917  14.2946  15.3898
    16.1950  17.3521  18.4614  19.5505

          k =-0.9250 0.2250 0.0000 (  1154 PWs)   bands (ev):

    -2.0543  -0.9854   2.8512   2.9948   7.8970   8.1028  13.7057  15.0464
    16.0329  17.4198  18.4306  19.6900

          k =-0.9125 0.2625 0.0000 (  1158 PWs)   bands (ev):

    -2.1037  -0.8979   2.7145   2.9311   8.2155   8.4433  13.1168  14.6846
    15.8864  17.4400  18.4430  19.8302

          k =-0.9000 0.3000 0.0000 (  1162 PWs)   bands (ev):

    -2.1446  -0.8222   2.5802   2.8891   8.5607   8.8084  12.5342  14.3160
    15.7476  17.3980  18.5100  19.9721

          k =-0.8875 0.3375 0.0000 (  1157 PWs)   bands (ev):

    -2.1770  -0.7612   2.4519   2.8737   8.9283   9.1929  11.9640  13.9474
    15.6117  17.2959  18.6274  20.1151

          k =-0.8750 0.3750 0.0000 (  1153 PWs)   bands (ev):

    -2.2010  -0.7170   2.3324   2.8882   9.3145   9.5881  11.4153  13.5830
    15.4757  17.1444  18.7824  20.2587

          k =-0.8625 0.4125 0.0000 (  1155 PWs)   bands (ev):

    -2.2165  -0.6909   2.2239   2.9340   9.7155   9.9619  10.9209  13.2266
    15.3378  16.9545  18.9626  20.4041

          k =-0.8500 0.4500 0.0000 (  1149 PWs)   bands (ev):

    -2.2239  -0.6824   2.1281   3.0100  10.0653  10.1276  10.7316  12.8817
    15.1975  16.7349  19.1611  20.5512

          k =-0.8375 0.4875 0.0000 (  1151 PWs)   bands (ev):

    -2.2231  -0.6903   2.0462   3.1131   9.6855  10.5442  11.0617  12.5536
    15.0538  16.4920  19.3726  20.7003

          k =-0.8250 0.5250 0.0000 (  1155 PWs)   bands (ev):

    -2.2145  -0.7124   1.9794   3.2378   9.2275  10.9491  11.5099  12.2576
    14.9069  16.2325  19.5937  20.8527

          k =-0.8125 0.5625-0.0000 (  1153 PWs)   bands (ev):

    -2.1983  -0.7458   1.9285   3.3764   8.7835  11.2756  11.9888  12.0594
    14.7575  15.9621  19.8225  21.0100

          k =-0.8000 0.6000 0.0000 (  1153 PWs)   bands (ev):

    -2.1745  -0.7880   1.8942   3.5185   8.3742  11.3127  12.1679  12.4847
    14.6065  15.6849  20.0554  21.1320

          k =-0.7875 0.6375-0.0000 (  1151 PWs)   bands (ev):

    -2.1435  -0.8365   1.8768   3.6507   8.0149  11.1082  12.5331  12.9924
    14.4565  15.4054  20.2899  21.2075

          k =-0.7750 0.6750 0.0000 (  1150 PWs)   bands (ev):

    -2.1052  -0.8894   1.8768   3.7557   7.7226  10.8515  12.9589  13.5078
    14.3130  15.1276  20.5232  21.2978

          k =-0.7625 0.7125-0.0000 (  1146 PWs)   bands (ev):

    -2.0599  -0.9453   1.8944   3.8140   7.5163  10.5902  13.3791  14.0238
    14.1950  14.8588  20.7531  21.3080

          k =-0.7500 0.7500 0.0000 (  1144 PWs)   bands (ev):

    -2.0075  -1.0032   1.9294   3.8083   7.4131  10.3349  13.6808  14.2037
    14.4458  14.6923  20.9439  21.0332

          k =-0.7125 0.7125 0.0000 (  1142 PWs)   bands (ev):

    -2.1953  -0.8137   1.8350   3.9401   7.5663  11.0951  13.2248  13.7474
    14.0778  14.3001  20.9861  21.4075

          k =-0.6750 0.6750 0.0000 (  1141 PWs)   bands (ev):

    -2.4197  -0.5982   1.8135   4.0867   7.7365  11.8444  12.7857  13.3496
    13.7212  13.9324  20.6507  21.2496

          k =-0.6375 0.6375 0.0000 (  1141 PWs)   bands (ev):

    -2.6726  -0.3570   1.8597   4.2462   7.9214  12.3656  12.3703  13.2166
    13.3811  13.5925  20.2356  20.8265

          k =-0.6000 0.6000 0.0000 (  1145 PWs)   bands (ev):

    -2.9442  -0.0902   1.9655   4.4165   8.1178  11.9658  12.2400  13.0624
    13.2835  13.7732  19.8239  20.4331

          k =-0.5625 0.5625 0.0000 (  1151 PWs)   bands (ev):

    -3.2252   0.2018   2.1224   4.5953   8.3212  11.5872  11.9055  12.7698
    13.0083  14.5541  19.4297  20.0821

          k =-0.5250 0.5250 0.0000 (  1155 PWs)   bands (ev):

    -3.5076   0.5187   2.3229   4.7793   8.5261  11.2312  11.5580  12.5088
    12.7723  15.3437  19.0556  19.7947

          k =-0.4875 0.4875 0.0000 (  1147 PWs)   bands (ev):

    -3.7850   0.8600   2.5604   4.9653   8.7246  10.8981  11.2233  12.2856
    12.5787  16.0676  18.6785  19.0906

          k =-0.4500 0.4500 0.0000 (  1151 PWs)   bands (ev):

    -4.0526   1.2252   2.8295   5.1493   8.9066  10.5884  10.9065  12.1071
    12.4304  16.6242  18.0736  18.4986

          k =-0.4125 0.4125 0.0000 (  1155 PWs)   bands (ev):

    -4.3068   1.6137   3.1253   5.3271   9.0607  10.3025  10.6104  11.9794
    12.3317  16.9036  17.2488  18.1837

          k =-0.3750 0.3750 0.0000 (  1155 PWs)   bands (ev):

    -4.5446   2.0247   3.4432   5.4945   9.1763  10.0406  10.3357  11.9043
    12.2856  16.4318  16.9050  17.9300

          k =-0.3375 0.3375 0.0000 (  1147 PWs)   bands (ev):

    -4.7640   2.4571   3.7787   5.6478   9.2470   9.8031  10.0825  11.8729
    12.2957  15.6596  16.7250  17.7173

          k =-0.3000 0.3000 0.0000 (  1157 PWs)   bands (ev):

    -4.9634   2.9093   4.1267   5.7835   9.2735   9.5902   9.8499  11.8561
    12.3615  14.9594  16.4413  17.5441

          k =-0.2625 0.2625 0.0000 (  1159 PWs)   bands (ev):

    -5.1416   3.3794   4.4815   5.8999   9.2640   9.4020   9.6375  11.7968
    12.4840  14.3785  16.0949  17.4129

          k =-0.2250 0.2250 0.0000 (  1161 PWs)   bands (ev):

    -5.2975   3.8640   4.8358   5.9963   9.2292   9.2387   9.4449  11.6164
    12.6590  13.9800  15.7133  17.3259

          k =-0.1875 0.1875 0.0000 (  1165 PWs)   bands (ev):

    -5.4305   4.3581   5.1806   6.0728   9.1003   9.1788   9.2716  11.2732
    12.8792  13.7920  15.3233  17.2844

          k =-0.1500 0.1500 0.0000 (  1169 PWs)   bands (ev):

    -5.5400   4.8531   5.5038   6.1314   8.9870   9.1178   9.1185  10.8158
    13.1328  13.7591  14.9529  17.2867

          k =-0.1125 0.1125 0.0000 (  1177 PWs)   bands (ev):

    -5.6256   5.3331   5.7902   6.1739   8.8988   8.9856   9.0475  10.3334
    13.4002  13.7979  14.6296  17.3246

          k =-0.0750 0.0750 0.0000 (  1179 PWs)   bands (ev):

    -5.6869   5.7675   6.0199   6.2025   8.8358   8.8800   8.9563   9.9147
    13.6515  13.8533  14.3778  17.3818

          k =-0.0375 0.0375 0.0000 (  1173 PWs)   bands (ev):

    -5.7238   6.0958   6.1711   6.2188   8.7980   8.8101   8.8454   9.6446
    13.8396  13.8955  14.2177  17.4334

          k = 0.0000 0.0000 0.0000 (  1139 PWs)   bands (ev):

    -5.7361   6.2245   6.2245   6.2245   8.7857   8.7857   8.7857   9.5576
    13.9121  13.9121  14.1627  17.4550

     Writing all to output data dir ./out/si.save/
 
     init_run     :      0.03s CPU      0.04s WALL (       1 calls)
     electrons    :     14.06s CPU     14.20s WALL (       1 calls)

     Called by init_run:
     wfcinit      :      0.00s CPU      0.00s WALL (       1 calls)
     wfcinit:wfcr :      0.43s CPU      0.48s WALL (      81 calls)
     potinit      :      0.01s CPU      0.01s WALL (       1 calls)
     hinit0       :      0.01s CPU      0.01s WALL (       1 calls)

     Called by electrons:
     c_bands      :     14.06s CPU     14.19s WALL (       1 calls)
     v_of_rho     :      0.01s CPU      0.01s WALL (       1 calls)
     v_h          :      0.00s CPU      0.00s WALL (       1 calls)
     v_xc         :      0.01s CPU      0.01s WALL (       1 calls)

     Called by c_bands:
     init_us_2    :      0.01s CPU      0.01s WALL (      81 calls)
     init_us_2:cp :      0.01s CPU      0.01s WALL (      81 calls)
     cegterg      :     13.52s CPU     13.59s WALL (     202 calls)

     Called by sum_band:

     Called by *egterg:
     cdiaghg      :      0.59s CPU      0.61s WALL (    3501 calls)
     cegterg:over :      0.41s CPU      0.42s WALL (    3420 calls)
     cegterg:upda :      0.28s CPU      0.28s WALL (    3420 calls)
     cegterg:last :      0.52s CPU      0.52s WALL (    2109 calls)
     h_psi        :     11.96s CPU     12.05s WALL (    3703 calls)
     g_psi        :      0.06s CPU      0.06s WALL (    3420 calls)

     Called by h_psi:
     h_psi:calbec :      0.21s CPU      0.21s WALL (    3703 calls)
     vloc_psi     :     11.52s CPU     11.61s WALL (    3703 calls)
     add_vuspsi   :      0.17s CPU      0.17s WALL (    3703 calls)

     General routines
     calbec       :      0.20s CPU      0.20s WALL (    3703 calls)
     fft          :      0.00s CPU      0.00s WALL (      10 calls)
     fftw         :     10.35s CPU     10.44s WALL (   53048 calls)
     davcio       :      0.03s CPU      0.04s WALL (     162 calls)
 
     Parallel routines
 
     PWSCF        :     14.24s CPU     14.45s WALL

 
   This run was terminated on:  14:10:34  31Oct2022            

=------------------------------------------------------------------------------=
   JOB DONE.
=------------------------------------------------------------------------------=
