
     Program PWSCF v.7.1 starts on  3Nov2022 at 10:55:29 

     This program is part of the open-source Quantum ESPRESSO suite
     for quantum simulation of materials; please cite
         "P. Giannozzi et al., J. Phys.:Condens. Matter 21 395502 (2009);
         "P. Giannozzi et al., J. Phys.:Condens. Matter 29 465901 (2017);
         "P. Giannozzi et al., J. Chem. Phys. 152 154105 (2020);
          URL http://www.quantum-espresso.org", 
     in publications or presentations arising from this work. More details at
     http://www.quantum-espresso.org/quote

     Parallel version (MPI), running on     1 processors

     MPI processes distributed on     1 nodes
     423 MiB available memory on the printing compute node when the environment starts
 
     Reading input from Si.bands.in

     Current dimensions of program PWSCF are:
     Max number of different atomic species (ntypx) = 10
     Max number of k-points (npk) =  40000
     Max angular momentum in pseudopotentials (lmaxx) =  4

     Atomic positions and unit cell read from directory:
     ./out/si.save/
 
 
     Subspace diagonalization in iterative solution of the eigenvalue problem:
     a serial algorithm will be used

 
     G-vector sticks info
     --------------------
     sticks:   dense  smooth     PW     G-vecs:    dense   smooth      PW
     Sum         583     583    169                 9257     9257    1471
 
     Using Slab Decomposition
 


     bravais-lattice index     =            2
     lattice parameter (alat)  =      10.2620  a.u.
     unit-cell volume          =     270.1693 (a.u.)^3
     number of atoms/cell      =            2
     number of atomic types    =            1
     number of electrons       =         8.00
     number of Kohn-Sham states=           12
     kinetic-energy cutoff     =      40.0000  Ry
     charge density cutoff     =     160.0000  Ry
     Exchange-correlation= PBE
                           (   1   4   3   4   0   0   0)

     celldm(1)=  10.262200  celldm(2)=   0.000000  celldm(3)=   0.000000
     celldm(4)=   0.000000  celldm(5)=   0.000000  celldm(6)=   0.000000

     crystal axes: (cart. coord. in units of alat)
               a(1) = (  -0.500000   0.000000   0.500000 )  
               a(2) = (   0.000000   0.500000   0.500000 )  
               a(3) = (  -0.500000   0.500000   0.000000 )  

     reciprocal axes: (cart. coord. in units 2 pi/alat)
               b(1) = ( -1.000000 -1.000000  1.000000 )  
               b(2) = (  1.000000  1.000000  1.000000 )  
               b(3) = ( -1.000000  1.000000 -1.000000 )  


     PseudoPot. # 1 for Si read from file:
     ../../files/pseudo/Si.pbe_PseudoDojo.UPF
     MD5 check sum: 02fab3f35e82123ef5bf1cb05d5b1a5e
     Pseudo is Norm-conserving + core correction, Zval =  4.0
     Generated using ONCVPSP code by D. R. Hamann
     Using radial grid of 1510 points,  6 beta functions with: 
                l(1) =   0
                l(2) =   0
                l(3) =   1
                l(4) =   1
                l(5) =   2
                l(6) =   2

     atomic species   valence    mass     pseudopotential
        Si             4.00    28.08600     Si( 1.00)

     48 Sym. Ops., with inversion, found (24 have fractional translation)


                                    s                        frac. trans.

      isym =  1     identity                                     

 cryst.   s( 1) = (     1          0          0      )
                  (     0          1          0      )
                  (     0          0          1      )

 cart.    s( 1) = (  1.0000000  0.0000000  0.0000000 )
                  (  0.0000000  1.0000000  0.0000000 )
                  (  0.0000000  0.0000000  1.0000000 )


      isym =  2     180 deg rotation - cart. axis [0,0,1]        

 cryst.   s( 2) = (     0          1         -1      )
                  (     1          0         -1      )
                  (     0          0         -1      )

 cart.    s( 2) = ( -1.0000000  0.0000000  0.0000000 )
                  (  0.0000000 -1.0000000  0.0000000 )
                  (  0.0000000  0.0000000  1.0000000 )


      isym =  3     180 deg rotation - cart. axis [0,1,0]        

 cryst.   s( 3) = (    -1          0          0      )
                  (    -1          0          1      )
                  (    -1          1          0      )

 cart.    s( 3) = ( -1.0000000  0.0000000  0.0000000 )
                  (  0.0000000  1.0000000  0.0000000 )
                  (  0.0000000  0.0000000 -1.0000000 )


      isym =  4     180 deg rotation - cart. axis [1,0,0]        

 cryst.   s( 4) = (     0         -1          1      )
                  (     0         -1          0      )
                  (     1         -1          0      )

 cart.    s( 4) = (  1.0000000  0.0000000  0.0000000 )
                  (  0.0000000 -1.0000000  0.0000000 )
                  (  0.0000000  0.0000000 -1.0000000 )


      isym =  5     180 deg rotation - cart. axis [1,1,0]        

 cryst.   s( 5) = (     0         -1          0      )    f =(  0.2500000 )
                  (    -1          0          0      )       (  0.2500000 )
                  (     0          0         -1      )       (  0.2500000 )

 cart.    s( 5) = (  0.0000000  1.0000000  0.0000000 )    f =( -0.2500000 )
                  (  1.0000000  0.0000000  0.0000000 )       (  0.2500000 )
                  (  0.0000000  0.0000000 -1.0000000 )       (  0.2500000 )


      isym =  6     180 deg rotation - cart. axis [1,-1,0]       

 cryst.   s( 6) = (    -1          0          1      )    f =(  0.2500000 )
                  (     0         -1          1      )       (  0.2500000 )
                  (     0          0          1      )       (  0.2500000 )

 cart.    s( 6) = (  0.0000000 -1.0000000  0.0000000 )    f =( -0.2500000 )
                  ( -1.0000000  0.0000000  0.0000000 )       (  0.2500000 )
                  (  0.0000000  0.0000000 -1.0000000 )       (  0.2500000 )


      isym =  7      90 deg rotation - cart. axis [0,0,-1]       

 cryst.   s( 7) = (     0          1          0      )    f =(  0.2500000 )
                  (     0          1         -1      )       (  0.2500000 )
                  (    -1          1          0      )       (  0.2500000 )

 cart.    s( 7) = (  0.0000000  1.0000000  0.0000000 )    f =( -0.2500000 )
                  ( -1.0000000  0.0000000  0.0000000 )       (  0.2500000 )
                  (  0.0000000  0.0000000  1.0000000 )       (  0.2500000 )


      isym =  8      90 deg rotation - cart. axis [0,0,1]        

 cryst.   s( 8) = (     1          0         -1      )    f =(  0.2500000 )
                  (     1          0          0      )       (  0.2500000 )
                  (     1         -1          0      )       (  0.2500000 )

 cart.    s( 8) = (  0.0000000 -1.0000000  0.0000000 )    f =( -0.2500000 )
                  (  1.0000000  0.0000000  0.0000000 )       (  0.2500000 )
                  (  0.0000000  0.0000000  1.0000000 )       (  0.2500000 )


      isym =  9     180 deg rotation - cart. axis [1,0,1]        

 cryst.   s( 9) = (    -1          0          0      )    f =(  0.2500000 )
                  (     0          0         -1      )       (  0.2500000 )
                  (     0         -1          0      )       (  0.2500000 )

 cart.    s( 9) = (  0.0000000  0.0000000  1.0000000 )    f =( -0.2500000 )
                  (  0.0000000 -1.0000000  0.0000000 )       (  0.2500000 )
                  (  1.0000000  0.0000000  0.0000000 )       (  0.2500000 )


      isym = 10     180 deg rotation - cart. axis [-1,0,1]       

 cryst.   s(10) = (     1          0          0      )    f =(  0.2500000 )
                  (     1         -1          0      )       (  0.2500000 )
                  (     1          0         -1      )       (  0.2500000 )

 cart.    s(10) = (  0.0000000  0.0000000 -1.0000000 )    f =( -0.2500000 )
                  (  0.0000000 -1.0000000  0.0000000 )       (  0.2500000 )
                  ( -1.0000000  0.0000000  0.0000000 )       (  0.2500000 )


      isym = 11      90 deg rotation - cart. axis [0,1,0]        

 cryst.   s(11) = (     0          1         -1      )    f =(  0.2500000 )
                  (    -1          1          0      )       (  0.2500000 )
                  (     0          1          0      )       (  0.2500000 )

 cart.    s(11) = (  0.0000000  0.0000000  1.0000000 )    f =( -0.2500000 )
                  (  0.0000000  1.0000000  0.0000000 )       (  0.2500000 )
                  ( -1.0000000  0.0000000  0.0000000 )       (  0.2500000 )


      isym = 12      90 deg rotation - cart. axis [0,-1,0]       

 cryst.   s(12) = (     0         -1          1      )    f =(  0.2500000 )
                  (     0          0          1      )       (  0.2500000 )
                  (    -1          0          1      )       (  0.2500000 )

 cart.    s(12) = (  0.0000000  0.0000000 -1.0000000 )    f =( -0.2500000 )
                  (  0.0000000  1.0000000  0.0000000 )       (  0.2500000 )
                  (  1.0000000  0.0000000  0.0000000 )       (  0.2500000 )


      isym = 13     180 deg rotation - cart. axis [0,1,1]        

 cryst.   s(13) = (    -1          1          0      )    f =(  0.2500000 )
                  (     0          1          0      )       (  0.2500000 )
                  (     0          1         -1      )       (  0.2500000 )

 cart.    s(13) = ( -1.0000000  0.0000000  0.0000000 )    f =( -0.2500000 )
                  (  0.0000000  0.0000000  1.0000000 )       (  0.2500000 )
                  (  0.0000000  1.0000000  0.0000000 )       (  0.2500000 )


      isym = 14     180 deg rotation - cart. axis [0,1,-1]       

 cryst.   s(14) = (     0          0         -1      )    f =(  0.2500000 )
                  (     0         -1          0      )       (  0.2500000 )
                  (    -1          0          0      )       (  0.2500000 )

 cart.    s(14) = ( -1.0000000  0.0000000  0.0000000 )    f =( -0.2500000 )
                  (  0.0000000  0.0000000 -1.0000000 )       (  0.2500000 )
                  (  0.0000000 -1.0000000  0.0000000 )       (  0.2500000 )


      isym = 15      90 deg rotation - cart. axis [-1,0,0]       

 cryst.   s(15) = (     0          0          1      )    f =(  0.2500000 )
                  (    -1          0          1      )       (  0.2500000 )
                  (     0         -1          1      )       (  0.2500000 )

 cart.    s(15) = (  1.0000000  0.0000000  0.0000000 )    f =( -0.2500000 )
                  (  0.0000000  0.0000000  1.0000000 )       (  0.2500000 )
                  (  0.0000000 -1.0000000  0.0000000 )       (  0.2500000 )


      isym = 16      90 deg rotation - cart. axis [1,0,0]        

 cryst.   s(16) = (     1         -1          0      )    f =(  0.2500000 )
                  (     1          0         -1      )       (  0.2500000 )
                  (     1          0          0      )       (  0.2500000 )

 cart.    s(16) = (  1.0000000  0.0000000  0.0000000 )    f =( -0.2500000 )
                  (  0.0000000  0.0000000 -1.0000000 )       (  0.2500000 )
                  (  0.0000000  1.0000000  0.0000000 )       (  0.2500000 )


      isym = 17     120 deg rotation - cart. axis [-1,-1,-1]     

 cryst.   s(17) = (    -1          0          1      )
                  (    -1          1          0      )
                  (    -1          0          0      )

 cart.    s(17) = (  0.0000000  1.0000000  0.0000000 )
                  (  0.0000000  0.0000000  1.0000000 )
                  (  1.0000000  0.0000000  0.0000000 )


      isym = 18     120 deg rotation - cart. axis [-1,1,1]       

 cryst.   s(18) = (     0          1          0      )
                  (     0          0          1      )
                  (     1          0          0      )

 cart.    s(18) = (  0.0000000 -1.0000000  0.0000000 )
                  (  0.0000000  0.0000000  1.0000000 )
                  ( -1.0000000  0.0000000  0.0000000 )


      isym = 19     120 deg rotation - cart. axis [1,1,-1]       

 cryst.   s(19) = (     1          0         -1      )
                  (     0          0         -1      )
                  (     0          1         -1      )

 cart.    s(19) = (  0.0000000  1.0000000  0.0000000 )
                  (  0.0000000  0.0000000 -1.0000000 )
                  ( -1.0000000  0.0000000  0.0000000 )


      isym = 20     120 deg rotation - cart. axis [1,-1,1]       

 cryst.   s(20) = (     0         -1          0      )
                  (     1         -1          0      )
                  (     0         -1          1      )

 cart.    s(20) = (  0.0000000 -1.0000000  0.0000000 )
                  (  0.0000000  0.0000000 -1.0000000 )
                  (  1.0000000  0.0000000  0.0000000 )


      isym = 21     120 deg rotation - cart. axis [1,1,1]        

 cryst.   s(21) = (     0          0         -1      )
                  (     0          1         -1      )
                  (     1          0         -1      )

 cart.    s(21) = (  0.0000000  0.0000000  1.0000000 )
                  (  1.0000000  0.0000000  0.0000000 )
                  (  0.0000000  1.0000000  0.0000000 )


      isym = 22     120 deg rotation - cart. axis [-1,1,-1]      

 cryst.   s(22) = (    -1          1          0      )
                  (    -1          0          0      )
                  (    -1          0          1      )

 cart.    s(22) = (  0.0000000  0.0000000  1.0000000 )
                  ( -1.0000000  0.0000000  0.0000000 )
                  (  0.0000000 -1.0000000  0.0000000 )


      isym = 23     120 deg rotation - cart. axis [1,-1,-1]      

 cryst.   s(23) = (     0          0          1      )
                  (     1          0          0      )
                  (     0          1          0      )

 cart.    s(23) = (  0.0000000  0.0000000 -1.0000000 )
                  ( -1.0000000  0.0000000  0.0000000 )
                  (  0.0000000  1.0000000  0.0000000 )


      isym = 24     120 deg rotation - cart. axis [-1,-1,1]      

 cryst.   s(24) = (     1         -1          0      )
                  (     0         -1          1      )
                  (     0         -1          0      )

 cart.    s(24) = (  0.0000000  0.0000000 -1.0000000 )
                  (  1.0000000  0.0000000  0.0000000 )
                  (  0.0000000 -1.0000000  0.0000000 )


      isym = 25     inversion                                    

 cryst.   s(25) = (    -1          0          0      )    f =(  0.2500000 )
                  (     0         -1          0      )       (  0.2500000 )
                  (     0          0         -1      )       (  0.2500000 )

 cart.    s(25) = ( -1.0000000  0.0000000  0.0000000 )    f =( -0.2500000 )
                  (  0.0000000 -1.0000000  0.0000000 )       (  0.2500000 )
                  (  0.0000000  0.0000000 -1.0000000 )       (  0.2500000 )


      isym = 26     inv. 180 deg rotation - cart. axis [0,0,1]   

 cryst.   s(26) = (     0         -1          1      )    f =(  0.2500000 )
                  (    -1          0          1      )       (  0.2500000 )
                  (     0          0          1      )       (  0.2500000 )

 cart.    s(26) = (  1.0000000  0.0000000  0.0000000 )    f =( -0.2500000 )
                  (  0.0000000  1.0000000  0.0000000 )       (  0.2500000 )
                  (  0.0000000  0.0000000 -1.0000000 )       (  0.2500000 )


      isym = 27     inv. 180 deg rotation - cart. axis [0,1,0]   

 cryst.   s(27) = (     1          0          0      )    f =(  0.2500000 )
                  (     1          0         -1      )       (  0.2500000 )
                  (     1         -1          0      )       (  0.2500000 )

 cart.    s(27) = (  1.0000000  0.0000000  0.0000000 )    f =( -0.2500000 )
                  (  0.0000000 -1.0000000  0.0000000 )       (  0.2500000 )
                  (  0.0000000  0.0000000  1.0000000 )       (  0.2500000 )


      isym = 28     inv. 180 deg rotation - cart. axis [1,0,0]   

 cryst.   s(28) = (     0          1         -1      )    f =(  0.2500000 )
                  (     0          1          0      )       (  0.2500000 )
                  (    -1          1          0      )       (  0.2500000 )

 cart.    s(28) = ( -1.0000000  0.0000000  0.0000000 )    f =( -0.2500000 )
                  (  0.0000000  1.0000000  0.0000000 )       (  0.2500000 )
                  (  0.0000000  0.0000000  1.0000000 )       (  0.2500000 )


      isym = 29     inv. 180 deg rotation - cart. axis [1,1,0]   

 cryst.   s(29) = (     0          1          0      )
                  (     1          0          0      )
                  (     0          0          1      )

 cart.    s(29) = (  0.0000000 -1.0000000  0.0000000 )
                  ( -1.0000000  0.0000000  0.0000000 )
                  (  0.0000000  0.0000000  1.0000000 )


      isym = 30     inv. 180 deg rotation - cart. axis [1,-1,0]  

 cryst.   s(30) = (     1          0         -1      )
                  (     0          1         -1      )
                  (     0          0         -1      )

 cart.    s(30) = (  0.0000000  1.0000000  0.0000000 )
                  (  1.0000000  0.0000000  0.0000000 )
                  (  0.0000000  0.0000000  1.0000000 )


      isym = 31     inv.  90 deg rotation - cart. axis [0,0,-1]  

 cryst.   s(31) = (     0         -1          0      )
                  (     0         -1          1      )
                  (     1         -1          0      )

 cart.    s(31) = (  0.0000000 -1.0000000  0.0000000 )
                  (  1.0000000  0.0000000  0.0000000 )
                  (  0.0000000  0.0000000 -1.0000000 )


      isym = 32     inv.  90 deg rotation - cart. axis [0,0,1]   

 cryst.   s(32) = (    -1          0          1      )
                  (    -1          0          0      )
                  (    -1          1          0      )

 cart.    s(32) = (  0.0000000  1.0000000  0.0000000 )
                  ( -1.0000000  0.0000000  0.0000000 )
                  (  0.0000000  0.0000000 -1.0000000 )


      isym = 33     inv. 180 deg rotation - cart. axis [1,0,1]   

 cryst.   s(33) = (     1          0          0      )
                  (     0          0          1      )
                  (     0          1          0      )

 cart.    s(33) = (  0.0000000  0.0000000 -1.0000000 )
                  (  0.0000000  1.0000000  0.0000000 )
                  ( -1.0000000  0.0000000  0.0000000 )


      isym = 34     inv. 180 deg rotation - cart. axis [-1,0,1]  

 cryst.   s(34) = (    -1          0          0      )
                  (    -1          1          0      )
                  (    -1          0          1      )

 cart.    s(34) = (  0.0000000  0.0000000  1.0000000 )
                  (  0.0000000  1.0000000  0.0000000 )
                  (  1.0000000  0.0000000  0.0000000 )


      isym = 35     inv.  90 deg rotation - cart. axis [0,1,0]   

 cryst.   s(35) = (     0         -1          1      )
                  (     1         -1          0      )
                  (     0         -1          0      )

 cart.    s(35) = (  0.0000000  0.0000000 -1.0000000 )
                  (  0.0000000 -1.0000000  0.0000000 )
                  (  1.0000000  0.0000000  0.0000000 )


      isym = 36     inv.  90 deg rotation - cart. axis [0,-1,0]  

 cryst.   s(36) = (     0          1         -1      )
                  (     0          0         -1      )
                  (     1          0         -1      )

 cart.    s(36) = (  0.0000000  0.0000000  1.0000000 )
                  (  0.0000000 -1.0000000  0.0000000 )
                  ( -1.0000000  0.0000000  0.0000000 )


      isym = 37     inv. 180 deg rotation - cart. axis [0,1,1]   

 cryst.   s(37) = (     1         -1          0      )
                  (     0         -1          0      )
                  (     0         -1          1      )

 cart.    s(37) = (  1.0000000  0.0000000  0.0000000 )
                  (  0.0000000  0.0000000 -1.0000000 )
                  (  0.0000000 -1.0000000  0.0000000 )


      isym = 38     inv. 180 deg rotation - cart. axis [0,1,-1]  

 cryst.   s(38) = (     0          0          1      )
                  (     0          1          0      )
                  (     1          0          0      )

 cart.    s(38) = (  1.0000000  0.0000000  0.0000000 )
                  (  0.0000000  0.0000000  1.0000000 )
                  (  0.0000000  1.0000000  0.0000000 )


      isym = 39     inv.  90 deg rotation - cart. axis [-1,0,0]  

 cryst.   s(39) = (     0          0         -1      )
                  (     1          0         -1      )
                  (     0          1         -1      )

 cart.    s(39) = ( -1.0000000  0.0000000  0.0000000 )
                  (  0.0000000  0.0000000 -1.0000000 )
                  (  0.0000000  1.0000000  0.0000000 )


      isym = 40     inv.  90 deg rotation - cart. axis [1,0,0]   

 cryst.   s(40) = (    -1          1          0      )
                  (    -1          0          1      )
                  (    -1          0          0      )

 cart.    s(40) = ( -1.0000000  0.0000000  0.0000000 )
                  (  0.0000000  0.0000000  1.0000000 )
                  (  0.0000000 -1.0000000  0.0000000 )


      isym = 41     inv. 120 deg rotation - cart. axis [-1,-1,-1]

 cryst.   s(41) = (     1          0         -1      )    f =(  0.2500000 )
                  (     1         -1          0      )       (  0.2500000 )
                  (     1          0          0      )       (  0.2500000 )

 cart.    s(41) = (  0.0000000 -1.0000000  0.0000000 )    f =( -0.2500000 )
                  (  0.0000000  0.0000000 -1.0000000 )       (  0.2500000 )
                  ( -1.0000000  0.0000000  0.0000000 )       (  0.2500000 )


      isym = 42     inv. 120 deg rotation - cart. axis [-1,1,1]  

 cryst.   s(42) = (     0         -1          0      )    f =(  0.2500000 )
                  (     0          0         -1      )       (  0.2500000 )
                  (    -1          0          0      )       (  0.2500000 )

 cart.    s(42) = (  0.0000000  1.0000000  0.0000000 )    f =( -0.2500000 )
                  (  0.0000000  0.0000000 -1.0000000 )       (  0.2500000 )
                  (  1.0000000  0.0000000  0.0000000 )       (  0.2500000 )


      isym = 43     inv. 120 deg rotation - cart. axis [1,1,-1]  

 cryst.   s(43) = (    -1          0          1      )    f =(  0.2500000 )
                  (     0          0          1      )       (  0.2500000 )
                  (     0         -1          1      )       (  0.2500000 )

 cart.    s(43) = (  0.0000000 -1.0000000  0.0000000 )    f =( -0.2500000 )
                  (  0.0000000  0.0000000  1.0000000 )       (  0.2500000 )
                  (  1.0000000  0.0000000  0.0000000 )       (  0.2500000 )


      isym = 44     inv. 120 deg rotation - cart. axis [1,-1,1]  

 cryst.   s(44) = (     0          1          0      )    f =(  0.2500000 )
                  (    -1          1          0      )       (  0.2500000 )
                  (     0          1         -1      )       (  0.2500000 )

 cart.    s(44) = (  0.0000000  1.0000000  0.0000000 )    f =( -0.2500000 )
                  (  0.0000000  0.0000000  1.0000000 )       (  0.2500000 )
                  ( -1.0000000  0.0000000  0.0000000 )       (  0.2500000 )


      isym = 45     inv. 120 deg rotation - cart. axis [1,1,1]   

 cryst.   s(45) = (     0          0          1      )    f =(  0.2500000 )
                  (     0         -1          1      )       (  0.2500000 )
                  (    -1          0          1      )       (  0.2500000 )

 cart.    s(45) = (  0.0000000  0.0000000 -1.0000000 )    f =( -0.2500000 )
                  ( -1.0000000  0.0000000  0.0000000 )       (  0.2500000 )
                  (  0.0000000 -1.0000000  0.0000000 )       (  0.2500000 )


      isym = 46     inv. 120 deg rotation - cart. axis [-1,1,-1] 

 cryst.   s(46) = (     1         -1          0      )    f =(  0.2500000 )
                  (     1          0          0      )       (  0.2500000 )
                  (     1          0         -1      )       (  0.2500000 )

 cart.    s(46) = (  0.0000000  0.0000000 -1.0000000 )    f =( -0.2500000 )
                  (  1.0000000  0.0000000  0.0000000 )       (  0.2500000 )
                  (  0.0000000  1.0000000  0.0000000 )       (  0.2500000 )


      isym = 47     inv. 120 deg rotation - cart. axis [1,-1,-1] 

 cryst.   s(47) = (     0          0         -1      )    f =(  0.2500000 )
                  (    -1          0          0      )       (  0.2500000 )
                  (     0         -1          0      )       (  0.2500000 )

 cart.    s(47) = (  0.0000000  0.0000000  1.0000000 )    f =( -0.2500000 )
                  (  1.0000000  0.0000000  0.0000000 )       (  0.2500000 )
                  (  0.0000000 -1.0000000  0.0000000 )       (  0.2500000 )


      isym = 48     inv. 120 deg rotation - cart. axis [-1,-1,1] 

 cryst.   s(48) = (    -1          1          0      )    f =(  0.2500000 )
                  (     0          1         -1      )       (  0.2500000 )
                  (     0          1          0      )       (  0.2500000 )

 cart.    s(48) = (  0.0000000  0.0000000  1.0000000 )    f =( -0.2500000 )
                  ( -1.0000000  0.0000000  0.0000000 )       (  0.2500000 )
                  (  0.0000000  1.0000000  0.0000000 )       (  0.2500000 )


     point group O_h (m-3m) 
     there are 10 classes
     the character table:

       E     8C3   3C2   6C4   6C2'  i     8S6   3s_h  6S4   6s_d 
A_1g   1.00  1.00  1.00  1.00  1.00  1.00  1.00  1.00  1.00  1.00
A_2g   1.00  1.00  1.00 -1.00 -1.00  1.00  1.00  1.00 -1.00 -1.00
E_g    2.00 -1.00  2.00  0.00  0.00  2.00 -1.00  2.00  0.00  0.00
T_1g   3.00  0.00 -1.00  1.00 -1.00  3.00  0.00 -1.00  1.00 -1.00
T_2g   3.00  0.00 -1.00 -1.00  1.00  3.00  0.00 -1.00 -1.00  1.00
A_1u   1.00  1.00  1.00  1.00  1.00 -1.00 -1.00 -1.00 -1.00 -1.00
A_2u   1.00  1.00  1.00 -1.00 -1.00 -1.00 -1.00 -1.00  1.00  1.00
E_u    2.00 -1.00  2.00  0.00  0.00 -2.00  1.00 -2.00  0.00  0.00
T_1u   3.00  0.00 -1.00  1.00 -1.00 -3.00  0.00  1.00 -1.00  1.00
T_2u   3.00  0.00 -1.00 -1.00  1.00 -3.00  0.00  1.00  1.00 -1.00

     the symmetry operations in each class and the name of the first element:

     E        1
          identity                                               
     8C3     17   19   20   18   24   21   22   23
          120 deg rotation - cart. axis [-1,-1,-1]               
     3C2      2    4    3
          180 deg rotation - cart. axis [0,0,1]                  
     6C4      7    8   15   16   12   11
           90 deg rotation - cart. axis [0,0,-1]                 
     6C2'     5    6   14   13   10    9
          180 deg rotation - cart. axis [1,1,0]                  
     i       25
          inversion                                              
     8S6     41   43   44   42   48   45   46   47
          inv. 120 deg rotation - cart. axis [-1,-1,-1]          
     3s_h    26   28   27
          inv. 180 deg rotation - cart. axis [0,0,1]             
     6S4     31   32   39   40   36   35
          inv.  90 deg rotation - cart. axis [0,0,-1]            
     6s_d    29   30   38   37   34   33
          inv. 180 deg rotation - cart. axis [1,1,0]             

   Cartesian axes

     site n.     atom                  positions (alat units)
         1           Si  tau(   1) = (   0.0000000   0.0000000   0.0000000  )
         2           Si  tau(   2) = (   0.2500000   0.2500000   0.2500000  )

   Crystallographic axes

     site n.     atom                  positions (cryst. coord.)
         1           Si  tau(   1) = (  0.0000000  0.0000000  0.0000000  )
         2           Si  tau(   2) = ( -0.2500000  0.7500000 -0.2500000  )

     number of k points=    81
                       cart. coord. in units 2pi/alat
        k(    1) = (  -0.5000000   0.5000000   0.5000000), wk =   0.0246914
        k(    2) = (  -0.4750000   0.4750000   0.4750000), wk =   0.0246914
        k(    3) = (  -0.4500000   0.4500000   0.4500000), wk =   0.0246914
        k(    4) = (  -0.4250000   0.4250000   0.4250000), wk =   0.0246914
        k(    5) = (  -0.4000000   0.4000000   0.4000000), wk =   0.0246914
        k(    6) = (  -0.3750000   0.3750000   0.3750000), wk =   0.0246914
        k(    7) = (  -0.3500000   0.3500000   0.3500000), wk =   0.0246914
        k(    8) = (  -0.3250000   0.3250000   0.3250000), wk =   0.0246914
        k(    9) = (  -0.3000000   0.3000000   0.3000000), wk =   0.0246914
        k(   10) = (  -0.2750000   0.2750000   0.2750000), wk =   0.0246914
        k(   11) = (  -0.2500000   0.2500000   0.2500000), wk =   0.0246914
        k(   12) = (  -0.2250000   0.2250000   0.2250000), wk =   0.0246914
        k(   13) = (  -0.2000000   0.2000000   0.2000000), wk =   0.0246914
        k(   14) = (  -0.1750000   0.1750000   0.1750000), wk =   0.0246914
        k(   15) = (  -0.1500000   0.1500000   0.1500000), wk =   0.0246914
        k(   16) = (  -0.1250000   0.1250000   0.1250000), wk =   0.0246914
        k(   17) = (  -0.1000000   0.1000000   0.1000000), wk =   0.0246914
        k(   18) = (  -0.0750000   0.0750000   0.0750000), wk =   0.0246914
        k(   19) = (  -0.0500000   0.0500000   0.0500000), wk =   0.0246914
        k(   20) = (  -0.0250000   0.0250000   0.0250000), wk =   0.0246914
        k(   21) = (   0.0000000   0.0000000   0.0000000), wk =   0.0246914
        k(   22) = (  -0.0500000   0.0000000   0.0000000), wk =   0.0246914
        k(   23) = (  -0.1000000   0.0000000   0.0000000), wk =   0.0246914
        k(   24) = (  -0.1500000   0.0000000   0.0000000), wk =   0.0246914
        k(   25) = (  -0.2000000   0.0000000   0.0000000), wk =   0.0246914
        k(   26) = (  -0.2500000   0.0000000   0.0000000), wk =   0.0246914
        k(   27) = (  -0.3000000   0.0000000   0.0000000), wk =   0.0246914
        k(   28) = (  -0.3500000   0.0000000   0.0000000), wk =   0.0246914
        k(   29) = (  -0.4000000   0.0000000   0.0000000), wk =   0.0246914
        k(   30) = (  -0.4500000   0.0000000   0.0000000), wk =   0.0246914
        k(   31) = (  -0.5000000   0.0000000   0.0000000), wk =   0.0246914
        k(   32) = (  -0.5500000   0.0000000   0.0000000), wk =   0.0246914
        k(   33) = (  -0.6000000   0.0000000   0.0000000), wk =   0.0246914
        k(   34) = (  -0.6500000   0.0000000   0.0000000), wk =   0.0246914
        k(   35) = (  -0.7000000   0.0000000   0.0000000), wk =   0.0246914
        k(   36) = (  -0.7500000   0.0000000   0.0000000), wk =   0.0246914
        k(   37) = (  -0.8000000   0.0000000   0.0000000), wk =   0.0246914
        k(   38) = (  -0.8500000   0.0000000   0.0000000), wk =   0.0246914
        k(   39) = (  -0.9000000   0.0000000   0.0000000), wk =   0.0246914
        k(   40) = (  -0.9500000   0.0000000   0.0000000), wk =   0.0246914
        k(   41) = (  -1.0000000   0.0000000   0.0000000), wk =   0.0246914
        k(   42) = (  -0.9875000   0.0375000   0.0000000), wk =   0.0246914
        k(   43) = (  -0.9750000   0.0750000   0.0000000), wk =   0.0246914
        k(   44) = (  -0.9625000   0.1125000   0.0000000), wk =   0.0246914
        k(   45) = (  -0.9500000   0.1500000   0.0000000), wk =   0.0246914
        k(   46) = (  -0.9375000   0.1875000   0.0000000), wk =   0.0246914
        k(   47) = (  -0.9250000   0.2250000   0.0000000), wk =   0.0246914
        k(   48) = (  -0.9125000   0.2625000   0.0000000), wk =   0.0246914
        k(   49) = (  -0.9000000   0.3000000   0.0000000), wk =   0.0246914
        k(   50) = (  -0.8875000   0.3375000   0.0000000), wk =   0.0246914
        k(   51) = (  -0.8750000   0.3750000   0.0000000), wk =   0.0246914
        k(   52) = (  -0.8625000   0.4125000   0.0000000), wk =   0.0246914
        k(   53) = (  -0.8500000   0.4500000   0.0000000), wk =   0.0246914
        k(   54) = (  -0.8375000   0.4875000   0.0000000), wk =   0.0246914
        k(   55) = (  -0.8250000   0.5250000   0.0000000), wk =   0.0246914
        k(   56) = (  -0.8125000   0.5625000   0.0000000), wk =   0.0246914
        k(   57) = (  -0.8000000   0.6000000   0.0000000), wk =   0.0246914
        k(   58) = (  -0.7875000   0.6375000   0.0000000), wk =   0.0246914
        k(   59) = (  -0.7750000   0.6750000   0.0000000), wk =   0.0246914
        k(   60) = (  -0.7625000   0.7125000   0.0000000), wk =   0.0246914
        k(   61) = (  -0.7500000   0.7500000   0.0000000), wk =   0.0246914
        k(   62) = (  -0.7125000   0.7125000   0.0000000), wk =   0.0246914
        k(   63) = (  -0.6750000   0.6750000   0.0000000), wk =   0.0246914
        k(   64) = (  -0.6375000   0.6375000   0.0000000), wk =   0.0246914
        k(   65) = (  -0.6000000   0.6000000   0.0000000), wk =   0.0246914
        k(   66) = (  -0.5625000   0.5625000   0.0000000), wk =   0.0246914
        k(   67) = (  -0.5250000   0.5250000   0.0000000), wk =   0.0246914
        k(   68) = (  -0.4875000   0.4875000   0.0000000), wk =   0.0246914
        k(   69) = (  -0.4500000   0.4500000   0.0000000), wk =   0.0246914
        k(   70) = (  -0.4125000   0.4125000   0.0000000), wk =   0.0246914
        k(   71) = (  -0.3750000   0.3750000   0.0000000), wk =   0.0246914
        k(   72) = (  -0.3375000   0.3375000   0.0000000), wk =   0.0246914
        k(   73) = (  -0.3000000   0.3000000   0.0000000), wk =   0.0246914
        k(   74) = (  -0.2625000   0.2625000   0.0000000), wk =   0.0246914
        k(   75) = (  -0.2250000   0.2250000   0.0000000), wk =   0.0246914
        k(   76) = (  -0.1875000   0.1875000   0.0000000), wk =   0.0246914
        k(   77) = (  -0.1500000   0.1500000   0.0000000), wk =   0.0246914
        k(   78) = (  -0.1125000   0.1125000   0.0000000), wk =   0.0246914
        k(   79) = (  -0.0750000   0.0750000   0.0000000), wk =   0.0246914
        k(   80) = (  -0.0375000   0.0375000   0.0000000), wk =   0.0246914
        k(   81) = (   0.0000000   0.0000000   0.0000000), wk =   0.0246914

                       cryst. coord.
        k(    1) = (   0.5000000   0.5000000   0.5000000), wk =   0.0246914
        k(    2) = (   0.4750000   0.4750000   0.4750000), wk =   0.0246914
        k(    3) = (   0.4500000   0.4500000   0.4500000), wk =   0.0246914
        k(    4) = (   0.4250000   0.4250000   0.4250000), wk =   0.0246914
        k(    5) = (   0.4000000   0.4000000   0.4000000), wk =   0.0246914
        k(    6) = (   0.3750000   0.3750000   0.3750000), wk =   0.0246914
        k(    7) = (   0.3500000   0.3500000   0.3500000), wk =   0.0246914
        k(    8) = (   0.3250000   0.3250000   0.3250000), wk =   0.0246914
        k(    9) = (   0.3000000   0.3000000   0.3000000), wk =   0.0246914
        k(   10) = (   0.2750000   0.2750000   0.2750000), wk =   0.0246914
        k(   11) = (   0.2500000   0.2500000   0.2500000), wk =   0.0246914
        k(   12) = (   0.2250000   0.2250000   0.2250000), wk =   0.0246914
        k(   13) = (   0.2000000   0.2000000   0.2000000), wk =   0.0246914
        k(   14) = (   0.1750000   0.1750000   0.1750000), wk =   0.0246914
        k(   15) = (   0.1500000   0.1500000   0.1500000), wk =   0.0246914
        k(   16) = (   0.1250000   0.1250000   0.1250000), wk =   0.0246914
        k(   17) = (   0.1000000   0.1000000   0.1000000), wk =   0.0246914
        k(   18) = (   0.0750000   0.0750000   0.0750000), wk =   0.0246914
        k(   19) = (   0.0500000   0.0500000   0.0500000), wk =   0.0246914
        k(   20) = (   0.0250000   0.0250000   0.0250000), wk =   0.0246914
        k(   21) = (   0.0000000   0.0000000   0.0000000), wk =   0.0246914
        k(   22) = (   0.0250000   0.0000000   0.0250000), wk =   0.0246914
        k(   23) = (   0.0500000   0.0000000   0.0500000), wk =   0.0246914
        k(   24) = (   0.0750000   0.0000000   0.0750000), wk =   0.0246914
        k(   25) = (   0.1000000   0.0000000   0.1000000), wk =   0.0246914
        k(   26) = (   0.1250000   0.0000000   0.1250000), wk =   0.0246914
        k(   27) = (   0.1500000   0.0000000   0.1500000), wk =   0.0246914
        k(   28) = (   0.1750000   0.0000000   0.1750000), wk =   0.0246914
        k(   29) = (   0.2000000   0.0000000   0.2000000), wk =   0.0246914
        k(   30) = (   0.2250000   0.0000000   0.2250000), wk =   0.0246914
        k(   31) = (   0.2500000   0.0000000   0.2500000), wk =   0.0246914
        k(   32) = (   0.2750000   0.0000000   0.2750000), wk =   0.0246914
        k(   33) = (   0.3000000   0.0000000   0.3000000), wk =   0.0246914
        k(   34) = (   0.3250000   0.0000000   0.3250000), wk =   0.0246914
        k(   35) = (   0.3500000   0.0000000   0.3500000), wk =   0.0246914
        k(   36) = (   0.3750000   0.0000000   0.3750000), wk =   0.0246914
        k(   37) = (   0.4000000   0.0000000   0.4000000), wk =   0.0246914
        k(   38) = (   0.4250000   0.0000000   0.4250000), wk =   0.0246914
        k(   39) = (   0.4500000   0.0000000   0.4500000), wk =   0.0246914
        k(   40) = (   0.4750000   0.0000000   0.4750000), wk =   0.0246914
        k(   41) = (   0.5000000   0.0000000   0.5000000), wk =   0.0246914
        k(   42) = (   0.4937500   0.0187500   0.5125000), wk =   0.0246914
        k(   43) = (   0.4875000   0.0375000   0.5250000), wk =   0.0246914
        k(   44) = (   0.4812500   0.0562500   0.5375000), wk =   0.0246914
        k(   45) = (   0.4750000   0.0750000   0.5500000), wk =   0.0246914
        k(   46) = (   0.4687500   0.0937500   0.5625000), wk =   0.0246914
        k(   47) = (   0.4625000   0.1125000   0.5750000), wk =   0.0246914
        k(   48) = (   0.4562500   0.1312500   0.5875000), wk =   0.0246914
        k(   49) = (   0.4500000   0.1500000   0.6000000), wk =   0.0246914
        k(   50) = (   0.4437500   0.1687500   0.6125000), wk =   0.0246914
        k(   51) = (   0.4375000   0.1875000   0.6250000), wk =   0.0246914
        k(   52) = (   0.4312500   0.2062500   0.6375000), wk =   0.0246914
        k(   53) = (   0.4250000   0.2250000   0.6500000), wk =   0.0246914
        k(   54) = (   0.4187500   0.2437500   0.6625000), wk =   0.0246914
        k(   55) = (   0.4125000   0.2625000   0.6750000), wk =   0.0246914
        k(   56) = (   0.4062500   0.2812500   0.6875000), wk =   0.0246914
        k(   57) = (   0.4000000   0.3000000   0.7000000), wk =   0.0246914
        k(   58) = (   0.3937500   0.3187500   0.7125000), wk =   0.0246914
        k(   59) = (   0.3875000   0.3375000   0.7250000), wk =   0.0246914
        k(   60) = (   0.3812500   0.3562500   0.7375000), wk =   0.0246914
        k(   61) = (   0.3750000   0.3750000   0.7500000), wk =   0.0246914
        k(   62) = (   0.3562500   0.3562500   0.7125000), wk =   0.0246914
        k(   63) = (   0.3375000   0.3375000   0.6750000), wk =   0.0246914
        k(   64) = (   0.3187500   0.3187500   0.6375000), wk =   0.0246914
        k(   65) = (   0.3000000   0.3000000   0.6000000), wk =   0.0246914
        k(   66) = (   0.2812500   0.2812500   0.5625000), wk =   0.0246914
        k(   67) = (   0.2625000   0.2625000   0.5250000), wk =   0.0246914
        k(   68) = (   0.2437500   0.2437500   0.4875000), wk =   0.0246914
        k(   69) = (   0.2250000   0.2250000   0.4500000), wk =   0.0246914
        k(   70) = (   0.2062500   0.2062500   0.4125000), wk =   0.0246914
        k(   71) = (   0.1875000   0.1875000   0.3750000), wk =   0.0246914
        k(   72) = (   0.1687500   0.1687500   0.3375000), wk =   0.0246914
        k(   73) = (   0.1500000   0.1500000   0.3000000), wk =   0.0246914
        k(   74) = (   0.1312500   0.1312500   0.2625000), wk =   0.0246914
        k(   75) = (   0.1125000   0.1125000   0.2250000), wk =   0.0246914
        k(   76) = (   0.0937500   0.0937500   0.1875000), wk =   0.0246914
        k(   77) = (   0.0750000   0.0750000   0.1500000), wk =   0.0246914
        k(   78) = (   0.0562500   0.0562500   0.1125000), wk =   0.0246914
        k(   79) = (   0.0375000   0.0375000   0.0750000), wk =   0.0246914
        k(   80) = (   0.0187500   0.0187500   0.0375000), wk =   0.0246914
        k(   81) = (   0.0000000   0.0000000   0.0000000), wk =   0.0246914

     Dense  grid:     9257 G-vectors     FFT dimensions: (  32,  32,  32)

     Dynamical RAM for                 wfc:       0.21 MB

     Dynamical RAM for     wfc (w. buffer):       0.21 MB

     Dynamical RAM for           str. fact:       0.14 MB

     Dynamical RAM for           local pot:       0.00 MB

     Dynamical RAM for          nlocal pot:       0.63 MB

     Dynamical RAM for                qrad:       1.02 MB

     Dynamical RAM for          rho,v,vnew:       1.17 MB

     Dynamical RAM for           G-vectors:       0.60 MB

     Dynamical RAM for          h,s,v(r/c):       0.03 MB

     Dynamical RAM for          <psi|beta>:       0.01 MB

     Dynamical RAM for                 psi:       0.42 MB

     Dynamical RAM for                hpsi:       0.42 MB

     Dynamical RAM for      wfcinit/wfcrot:       0.43 MB

     Estimated static dynamical RAM per process >       5.31 MB

     Estimated max dynamical RAM per process >       6.19 MB

     The potential is recalculated from file :
     ./out/si.save/charge-density

     Starting wfcs are    8 randomized atomic wfcs +    4 random wfcs

     Band Structure Calculation
     Davidson diagonalization with overlap

     Computing kpt #:     1  of    81
     total cpu time spent up to now is        0.4 secs

     Computing kpt #:     2  of    81
     total cpu time spent up to now is        0.6 secs

     Computing kpt #:     3  of    81
     total cpu time spent up to now is        0.8 secs

     Computing kpt #:     4  of    81
     total cpu time spent up to now is        1.0 secs

     Computing kpt #:     5  of    81
     total cpu time spent up to now is        1.1 secs

     Computing kpt #:     6  of    81
     total cpu time spent up to now is        1.3 secs

     Computing kpt #:     7  of    81
     total cpu time spent up to now is        1.5 secs

     Computing kpt #:     8  of    81
     total cpu time spent up to now is        1.6 secs

     Computing kpt #:     9  of    81
     total cpu time spent up to now is        1.8 secs

     Computing kpt #:    10  of    81
     total cpu time spent up to now is        1.9 secs

     Computing kpt #:    11  of    81
     total cpu time spent up to now is        2.1 secs

     Computing kpt #:    12  of    81
     total cpu time spent up to now is        2.2 secs

     Computing kpt #:    13  of    81
     total cpu time spent up to now is        2.4 secs

     Computing kpt #:    14  of    81
     total cpu time spent up to now is        2.5 secs

     Computing kpt #:    15  of    81
     total cpu time spent up to now is        2.6 secs

     Computing kpt #:    16  of    81
     total cpu time spent up to now is        2.8 secs

     Computing kpt #:    17  of    81
     total cpu time spent up to now is        2.9 secs

     Computing kpt #:    18  of    81
     total cpu time spent up to now is        3.1 secs

     Computing kpt #:    19  of    81
     total cpu time spent up to now is        3.3 secs

     Computing kpt #:    20  of    81
     total cpu time spent up to now is        3.4 secs

     Computing kpt #:    21  of    81
     total cpu time spent up to now is        3.6 secs

     Computing kpt #:    22  of    81
     total cpu time spent up to now is        3.7 secs

     Computing kpt #:    23  of    81
     total cpu time spent up to now is        3.9 secs

     Computing kpt #:    24  of    81
     total cpu time spent up to now is        4.0 secs

     Computing kpt #:    25  of    81
     total cpu time spent up to now is        4.2 secs

     Computing kpt #:    26  of    81
     total cpu time spent up to now is        4.4 secs

     Computing kpt #:    27  of    81
     total cpu time spent up to now is        4.5 secs

     Computing kpt #:    28  of    81
     total cpu time spent up to now is        4.7 secs

     Computing kpt #:    29  of    81
     total cpu time spent up to now is        4.8 secs

     Computing kpt #:    30  of    81
     total cpu time spent up to now is        5.0 secs

     Computing kpt #:    31  of    81
     total cpu time spent up to now is        5.2 secs

     Computing kpt #:    32  of    81
     total cpu time spent up to now is        5.3 secs

     Computing kpt #:    33  of    81
     total cpu time spent up to now is        5.5 secs

     Computing kpt #:    34  of    81
     total cpu time spent up to now is        5.7 secs

     Computing kpt #:    35  of    81
     total cpu time spent up to now is        5.9 secs

     Computing kpt #:    36  of    81
     total cpu time spent up to now is        6.1 secs

     Computing kpt #:    37  of    81
     total cpu time spent up to now is        6.3 secs

     Computing kpt #:    38  of    81
     total cpu time spent up to now is        6.5 secs

     Computing kpt #:    39  of    81
     total cpu time spent up to now is        6.7 secs

     Computing kpt #:    40  of    81
     total cpu time spent up to now is        6.9 secs

     Computing kpt #:    41  of    81
     total cpu time spent up to now is        7.1 secs

     Computing kpt #:    42  of    81
     total cpu time spent up to now is        7.3 secs

     Computing kpt #:    43  of    81
     total cpu time spent up to now is        7.5 secs

     Computing kpt #:    44  of    81
     total cpu time spent up to now is        7.7 secs

     Computing kpt #:    45  of    81
     total cpu time spent up to now is        7.9 secs

     Computing kpt #:    46  of    81
     total cpu time spent up to now is        8.1 secs

     Computing kpt #:    47  of    81
     total cpu time spent up to now is        8.3 secs

     Computing kpt #:    48  of    81
     total cpu time spent up to now is        8.5 secs

     Computing kpt #:    49  of    81
     total cpu time spent up to now is        8.6 secs

     Computing kpt #:    50  of    81
     total cpu time spent up to now is        8.8 secs

     Computing kpt #:    51  of    81
     total cpu time spent up to now is        9.0 secs

     Computing kpt #:    52  of    81
     total cpu time spent up to now is        9.1 secs

     Computing kpt #:    53  of    81
     total cpu time spent up to now is        9.3 secs

     Computing kpt #:    54  of    81
     total cpu time spent up to now is        9.5 secs

     Computing kpt #:    55  of    81
     total cpu time spent up to now is        9.7 secs

     Computing kpt #:    56  of    81
     total cpu time spent up to now is        9.8 secs

     Computing kpt #:    57  of    81
     total cpu time spent up to now is       10.1 secs

     Computing kpt #:    58  of    81
     total cpu time spent up to now is       10.3 secs

     Computing kpt #:    59  of    81
     total cpu time spent up to now is       10.5 secs

     Computing kpt #:    60  of    81
     total cpu time spent up to now is       10.7 secs

     Computing kpt #:    61  of    81
     total cpu time spent up to now is       10.9 secs

     Computing kpt #:    62  of    81
     total cpu time spent up to now is       11.1 secs

     Computing kpt #:    63  of    81
     total cpu time spent up to now is       11.3 secs

     Computing kpt #:    64  of    81
     total cpu time spent up to now is       11.5 secs

     Computing kpt #:    65  of    81
     total cpu time spent up to now is       11.6 secs

     Computing kpt #:    66  of    81
     total cpu time spent up to now is       11.8 secs

     Computing kpt #:    67  of    81
     total cpu time spent up to now is       12.0 secs

     Computing kpt #:    68  of    81
     total cpu time spent up to now is       12.2 secs

     Computing kpt #:    69  of    81
     total cpu time spent up to now is       12.3 secs

     Computing kpt #:    70  of    81
     total cpu time spent up to now is       12.4 secs

     Computing kpt #:    71  of    81
     total cpu time spent up to now is       12.6 secs

     Computing kpt #:    72  of    81
     total cpu time spent up to now is       12.7 secs

     Computing kpt #:    73  of    81
     total cpu time spent up to now is       12.9 secs

     Computing kpt #:    74  of    81
     total cpu time spent up to now is       13.0 secs

     Computing kpt #:    75  of    81
     total cpu time spent up to now is       13.2 secs

     Computing kpt #:    76  of    81
     total cpu time spent up to now is       13.4 secs

     Computing kpt #:    77  of    81
     total cpu time spent up to now is       13.5 secs

     Computing kpt #:    78  of    81
     total cpu time spent up to now is       13.7 secs

     Computing kpt #:    79  of    81
     total cpu time spent up to now is       13.8 secs

     Computing kpt #:    80  of    81
     total cpu time spent up to now is       14.1 secs

     Computing kpt #:    81  of    81
     total cpu time spent up to now is       14.2 secs

     ethr =  1.25E-10,  avg # of iterations = 43.3

     total cpu time spent up to now is       14.2 secs

     End of band structure calculation

          k =-0.5000 0.5000 0.5000 (  1158 PWs)   bands (ev):

    -3.4038  -0.7428   5.0298   5.0298   7.7591   9.5685   9.5685  13.9626
    16.7881  16.7881  17.5708  17.5708

          k =-0.4750 0.4750 0.4750 (  1164 PWs)   bands (ev):

    -3.4392  -0.6919   5.0343   5.0343   7.7643   9.5737   9.5737  13.9706
    16.5347  16.5347  17.4480  17.8429

          k =-0.4500 0.4500 0.4500 (  1164 PWs)   bands (ev):

    -3.5378  -0.5469   5.0478   5.0478   7.7798   9.5889   9.5889  13.9938
    16.1005  16.1005  17.1301  18.3328

          k =-0.4250 0.4250 0.4250 (  1155 PWs)   bands (ev):

    -3.6824  -0.3252   5.0702   5.0702   7.8055   9.6130   9.6130  14.0300
    15.6537  15.6537  16.7364  18.8712

          k =-0.4000 0.4000 0.4000 (  1161 PWs)   bands (ev):

    -3.8549  -0.0450   5.1016   5.1016   7.8413   9.6440   9.6440  14.0741
    15.2232  15.2232  16.3206  19.4264

          k =-0.3750 0.3750 0.3750 (  1155 PWs)   bands (ev):

    -4.0413   0.2794   5.1418   5.1418   7.8870   9.6789   9.6789  14.1148
    14.8191  14.8191  15.9129  19.9818

          k =-0.3500 0.3500 0.3500 (  1155 PWs)   bands (ev):

    -4.2318   0.6378   5.1908   5.1908   7.9424   9.7137   9.7137  14.1273
    14.4483  14.4483  15.5454  20.1062

          k =-0.3250 0.3250 0.3250 (  1149 PWs)   bands (ev):

    -4.4200   1.0234   5.2484   5.2484   8.0071   9.7430   9.7430  14.0603
    14.1174  14.1174  15.2716  19.6828

          k =-0.3000 0.3000 0.3000 (  1161 PWs)   bands (ev):

    -4.6016   1.4312   5.3143   5.3143   8.0805   9.7604   9.7604  13.8334
    13.8334  13.8574  15.1467  19.1585

          k =-0.2750 0.2750 0.2750 (  1164 PWs)   bands (ev):

    -4.7738   1.8576   5.3882   5.3882   8.1619   9.7588   9.7588  13.5312
    13.6036  13.6036  15.1541  18.6079

          k =-0.2500 0.2500 0.2500 (  1164 PWs)   bands (ev):

    -4.9346   2.2994   5.4693   5.4693   8.2502   9.7317   9.7317  13.1371
    13.4346  13.4346  15.2301  18.0726

          k =-0.2250 0.2250 0.2250 (  1164 PWs)   bands (ev):

    -5.0826   2.7539   5.5570   5.5570   8.3441   9.6750   9.6750  12.7107
    13.3300  13.3300  15.3228  17.5858

          k =-0.2000 0.2000 0.2000 (  1167 PWs)   bands (ev):

    -5.2167   3.2180   5.6499   5.6499   8.4416   9.5886   9.5886  12.2687
    13.2895  13.2895  15.3845  17.1885

          k =-0.1750 0.1750 0.1750 (  1167 PWs)   bands (ev):

    -5.3364   3.6885   5.7466   5.7466   8.5400   9.4770   9.4770  11.8194
    13.3075  13.3075  15.3579  16.9365

          k =-0.1500 0.1500 0.1500 (  1173 PWs)   bands (ev):

    -5.4409   4.1608   5.8446   5.8446   8.6358   9.3481   9.3481  11.3691
    13.3746  13.3746  15.2094  16.8631

          k =-0.1250 0.1250 0.1250 (  1173 PWs)   bands (ev):

    -5.5299   4.6287   5.9410   5.9410   8.7236   9.2122   9.2122  10.9256
    13.4781  13.4781  14.9782  16.9282

          k =-0.1000 0.1000 0.1000 (  1179 PWs)   bands (ev):

    -5.6031   5.0824   6.0317   6.0317   8.7960   9.0798   9.0798  10.5016
    13.6033  13.6033  14.7298  17.0628

          k =-0.0750 0.0750 0.0750 (  1185 PWs)   bands (ev):

    -5.6602   5.5061   6.1118   6.1118   8.8417   8.9618   8.9618  10.1193
    13.7334  13.7334  14.5082  17.2166

          k =-0.0500 0.0500 0.0500 (  1167 PWs)   bands (ev):

    -5.7011   5.8718   6.1753   6.1753   8.8466   8.8683   8.8683   9.8156
    13.8491  13.8491  14.3371  17.3553

          k =-0.0250 0.0250 0.0250 (  1157 PWs)   bands (ev):

    -5.7257   6.1332   6.2165   6.2165   8.8080   8.8080   8.8122   9.6309
    13.9301  13.9301  14.2298  17.4518

          k = 0.0000 0.0000 0.0000 (  1139 PWs)   bands (ev):

    -5.7340   6.2308   6.2308   6.2308   8.7871   8.7871   8.7871   9.5728
    13.9594  13.9594  14.1932  17.4866

          k =-0.0500 0.0000 0.0000 (  1163 PWs)   bands (ev):

    -5.7230   6.1560   6.1837   6.1837   8.7600   8.8477   8.8477   9.6459
    13.8703  13.9715  14.2419  17.5056

          k =-0.1000 0.0000 0.0000 (  1171 PWs)   bands (ev):

    -5.6902   5.9495   6.0546   6.0546   8.6820   9.0172   9.0172   9.8442
    13.6315  14.0079  14.3846  17.5625

          k =-0.1500 0.0000 0.0000 (  1171 PWs)   bands (ev):

    -5.6356   5.6491   5.8694   5.8694   8.5615   9.2694   9.2694  10.1177
    13.3084  14.0684  14.6128  17.6573

          k =-0.2000 0.0000 0.0000 (  1171 PWs)   bands (ev):

    -5.5592   5.2892   5.6529   5.6529   8.4095   9.5794   9.5794  10.4028
    12.9794  14.1532  14.9147  17.7895

          k =-0.2500 0.0000 0.0000 (  1163 PWs)   bands (ev):

    -5.4611   4.8930   5.4224   5.4224   8.2373   9.9292   9.9292  10.6114
    12.7432  14.2621  15.2784  17.9583

          k =-0.3000 0.0000 0.0000 (  1163 PWs)   bands (ev):

    -5.3416   4.4747   5.1892   5.1892   8.0546  10.3073  10.3073  10.6330
    12.7178  14.3952  15.6926  18.1624

          k =-0.3500 0.0000 0.0000 (  1162 PWs)   bands (ev):

    -5.2007   4.0427   4.9603   4.9603   7.8695  10.4394  10.7060  10.7060
    12.9363  14.5524  16.1475  18.3994

          k =-0.4000 0.0000 0.0000 (  1170 PWs)   bands (ev):

    -5.0387   3.6022   4.7403   4.7403   7.6886  10.1163  11.1204  11.1204
    13.3159  14.7337  16.6341  18.6649

          k =-0.4500 0.0000 0.0000 (  1162 PWs)   bands (ev):

    -4.8559   3.1566   4.5323   4.5323   7.5167   9.7439  11.5469  11.5469
    13.7782  14.9391  17.1436  18.9509

          k =-0.5000 0.0000 0.0000 (  1174 PWs)   bands (ev):

    -4.6524   2.7081   4.3384   4.3384   7.3577   9.3630  11.9832  11.9832
    14.2823  15.1684  17.6664  19.2423

          k =-0.5500 0.0000 0.0000 (  1158 PWs)   bands (ev):

    -4.4288   2.2586   4.1601   4.1601   7.2147   8.9934  12.4275  12.4275
    14.8080  15.4217  18.1909  19.5101

          k =-0.6000 0.0000 0.0000 (  1146 PWs)   bands (ev):

    -4.1853   1.8096   3.9985   3.9985   7.0900   8.6451  12.8787  12.8787
    15.3434  15.6988  18.7013  19.6999

          k =-0.6500 0.0000 0.0000 (  1150 PWs)   bands (ev):

    -3.9223   1.3625   3.8545   3.8545   6.9856   8.3235  13.3358  13.3358
    15.8810  15.9997  19.1755  19.7340

          k =-0.7000 0.0000 0.0000 (  1158 PWs)   bands (ev):

    -3.6405   0.9188   3.7286   3.7286   6.9031   8.0315  13.7983  13.7983
    16.3243  16.4149  19.5667  19.5667

          k =-0.7500 0.0000 0.0000 (  1150 PWs)   bands (ev):

    -3.3404   0.4799   3.6214   3.6214   6.8441   7.7706  14.2654  14.2654
    16.6724  16.9405  19.2365  19.2365

          k =-0.8000 0.0000 0.0000 (  1154 PWs)   bands (ev):

    -3.0227   0.0474   3.5333   3.5333   6.8097   7.5415  14.7359  14.7359
    17.0440  17.4535  18.8138  18.8138

          k =-0.8500 0.0000 0.0000 (  1154 PWs)   bands (ev):

    -2.6880  -0.3774   3.4645   3.4645   6.8011   7.3443  15.2069  15.2069
    17.4389  17.9495  18.3501  18.3501

          k =-0.9000 0.0000 0.0000 (  1154 PWs)   bands (ev):

    -2.3373  -0.7930   3.4152   3.4152   6.8192   7.1786  15.6702  15.6702
    17.8569  17.8799  17.8799  18.4229

          k =-0.9500 0.0000 0.0000 (  1162 PWs)   bands (ev):

    -1.9713  -1.1980   3.3856   3.3856   6.8652   7.0441  16.0945  16.0945
    17.4473  17.4473  18.2978  18.8668

          k =-1.0000 0.0000 0.0000 (  1162 PWs)   bands (ev):

    -1.5912  -1.5912   3.3757   3.3757   6.9398   6.9398  16.3206  16.3206
    17.2179  17.2179  18.7615  18.7615

          k =-0.9875 0.0375 0.0000 (  1160 PWs)   bands (ev):

    -1.6852  -1.4922   3.3571   3.3580   6.9529   6.9971  16.2297  16.2646
    17.1379  17.1751  18.7059  18.9442

          k =-0.9750 0.0750 0.0000 (  1154 PWs)   bands (ev):

    -1.7733  -1.3897   3.3025   3.3092   7.0352   7.1207  15.9185  16.1343
    16.9314  17.1611  18.6832  19.1515

          k =-0.9625 0.1125 0.0000 (  1147 PWs)   bands (ev):

    -1.8545  -1.2852   3.2166   3.2379   7.1809   7.3036  15.4454  15.9483
    16.6822  17.2185  18.6306  19.3148

          k =-0.9500 0.1500 0.0000 (  1146 PWs)   bands (ev):

    -1.9284  -1.1809   3.1068   3.1545   7.3821   7.5370  14.8976  15.7035
    16.4479  17.3072  18.5659  19.4581

          k =-0.9375 0.1875 0.0000 (  1154 PWs)   bands (ev):

    -1.9943  -1.0793   2.9814   3.0691   7.6298   7.8128  14.3191  15.4033
    16.2490  17.3970  18.5085  19.5965

          k =-0.9250 0.2250 0.0000 (  1154 PWs)   bands (ev):

    -2.0521  -0.9831   2.8475   2.9908   7.9162   8.1241  13.7299  15.0650
    16.0798  17.4640  18.4760  19.7348

          k =-0.9125 0.2625 0.0000 (  1158 PWs)   bands (ev):

    -2.1015  -0.8956   2.7112   2.9275   8.2348   8.4651  13.1402  14.7064
    15.9283  17.4843  18.4872  19.8742

          k =-0.9000 0.3000 0.0000 (  1158 PWs)   bands (ev):

    -2.1424  -0.8199   2.5771   2.8858   8.5802   8.8307  12.5567  14.3395
    15.7859  17.4425  18.5538  20.0151

          k =-0.8875 0.3375 0.0000 (  1153 PWs)   bands (ev):

    -2.1747  -0.7589   2.4491   2.8706   8.9480   9.2160  11.9851  13.9717
    15.6472  17.3400  18.6710  20.1574

          k =-0.8750 0.3750 0.0000 (  1153 PWs)   bands (ev):

    -2.1986  -0.7148   2.3298   2.8853   9.3346   9.6126  11.4346  13.6075
    15.5092  17.1879  18.8258  20.3009

          k =-0.8625 0.4125 0.0000 (  1155 PWs)   bands (ev):

    -2.2142  -0.6887   2.2214   2.9312   9.7365   9.9891  10.9372  13.2508
    15.3700  16.9973  19.0064  20.4457

          k =-0.8500 0.4500 0.0000 (  1149 PWs)   bands (ev):

    -2.2215  -0.6803   2.1256   3.0072  10.0934  10.1496  10.7468  12.9049
    15.2284  16.7767  19.2053  20.5920

          k =-0.8375 0.4875 0.0000 (  1151 PWs)   bands (ev):

    -2.2207  -0.6882   2.0439   3.1103   9.7086  10.5678  11.0822  12.5753
    15.0838  16.5333  19.4175  20.7407

          k =-0.8250 0.5250 0.0000 (  1155 PWs)   bands (ev):

    -2.2121  -0.7103   1.9771   3.2349   9.2487  10.9756  11.5327  12.2766
    14.9363  16.2731  19.6393  20.8929

          k =-0.8125 0.5625 0.0000 (  1153 PWs)   bands (ev):

    -2.1958  -0.7438   1.9262   3.3732   8.8038  11.3078  12.0129  12.0727
    14.7864  16.0016  19.8680  21.0503

          k =-0.8000 0.6000 0.0000 (  1153 PWs)   bands (ev):

    -2.1721  -0.7860   1.8918   3.5150   8.3942  11.3460  12.1801  12.5097
    14.6355  15.7237  20.1007  21.1823

          k =-0.7875 0.6375 0.0000 (  1151 PWs)   bands (ev):

    -2.1410  -0.8345   1.8745   3.6466   8.0349  11.1377  12.5484  13.0180
    14.4860  15.4437  20.3345  21.2593

          k =-0.7750 0.6750 0.0000 (  1150 PWs)   bands (ev):

    -2.1027  -0.8875   1.8744   3.7511   7.7427  10.8789  12.9753  13.5334
    14.3440  15.1663  20.5665  21.3516

          k =-0.7625 0.7125 0.0000 (  1146 PWs)   bands (ev):

    -2.0574  -0.9433   1.8919   3.8089   7.5366  10.6159  13.3937  14.0466
    14.2297  14.9006  20.7929  21.3647

          k =-0.7500 0.7500 0.0000 (  1144 PWs)   bands (ev):

    -2.0051  -1.0013   1.9269   3.8029   7.4335  10.3596  13.6911  14.2441
    14.4511  14.7515  20.9590  21.1143

          k =-0.7125 0.7125 0.0000 (  1142 PWs)   bands (ev):

    -2.1928  -0.8118   1.8326   3.9350   7.5865  11.1235  13.2348  13.7823
    14.0840  14.3576  21.0156  21.4883

          k =-0.6750 0.6750 0.0000 (  1141 PWs)   bands (ev):

    -2.4172  -0.5963   1.8113   4.0819   7.7564  11.8800  12.7953  13.3758
    13.7284  13.9880  20.6946  21.2855

          k =-0.6375 0.6375 0.0000 (  1141 PWs)   bands (ev):

    -2.6701  -0.3551   1.8576   4.2417   7.9409  12.3745  12.4223  13.2253
    13.3893  13.6463  20.2826  20.8630

          k =-0.6000 0.6000 0.0000 (  1145 PWs)   bands (ev):

    -2.9418  -0.0884   1.9635   4.4125   8.1367  11.9741  12.2857  13.0716
    13.3360  13.7872  19.8715  20.4705

          k =-0.5625 0.5625 0.0000 (  1151 PWs)   bands (ev):

    -3.2228   0.2036   2.1205   4.5917   8.3396  11.5952  11.9450  12.7802
    13.0604  14.5733  19.4772  20.1212

          k =-0.5250 0.5250 0.0000 (  1155 PWs)   bands (ev):

    -3.5052   0.5204   2.3211   4.7763   8.5436  11.2385  11.5935  12.5205
    12.8233  15.3652  19.1013  19.8367

          k =-0.4875 0.4875 0.0000 (  1147 PWs)   bands (ev):

    -3.7827   0.8618   2.5587   4.9628   8.7410  10.9047  11.2553  12.2988
    12.6281  16.0885  18.7209  19.1407

          k =-0.4500 0.4500 0.0000 (  1151 PWs)   bands (ev):

    -4.0503   1.2270   2.8279   5.1474   8.9217  10.5943  10.9362  12.1219
    12.4789  16.6432  18.1141  18.5488

          k =-0.4125 0.4125 0.0000 (  1155 PWs)   bands (ev):

    -4.3045   1.6156   3.1238   5.3260   9.0743  10.3078  10.6379  11.9959
    12.3792  16.9212  17.2902  18.2309

          k =-0.3750 0.3750 0.0000 (  1155 PWs)   bands (ev):

    -4.5423   2.0268   3.4420   5.4942   9.1882  10.0454  10.3609  11.9223
    12.3326  16.4725  16.9231  17.9755

          k =-0.3375 0.3375 0.0000 (  1147 PWs)   bands (ev):

    -4.7617   2.4593   3.7777   5.6483   9.2572   9.8074  10.1052  11.8919
    12.3417  15.6992  16.7446  17.7612

          k =-0.3000 0.3000 0.0000 (  1157 PWs)   bands (ev):

    -4.9612   2.9118   4.1261   5.7850   9.2824   9.5940   9.8704  11.8750
    12.4077  14.9997  16.4624  17.5867

          k =-0.2625 0.2625 0.0000 (  1159 PWs)   bands (ev):

    -5.1393   3.3821   4.4813   5.9024   9.2720   9.4053   9.6559  11.8142
    12.5300  14.4207  16.1175  17.4540

          k =-0.2250 0.2250 0.0000 (  1161 PWs)   bands (ev):

    -5.2953   3.8671   4.8362   5.9996   9.2365   9.2416   9.4609  11.6315
    12.7049  14.0250  15.7374  17.3653

          k =-0.1875 0.1875 0.0000 (  1165 PWs)   bands (ev):

    -5.4283   4.3617   5.1818   6.0772   9.1029   9.1856   9.2849  11.2869
    12.9255  13.8391  15.3489  17.3221

          k =-0.1500 0.1500 0.0000 (  1169 PWs)   bands (ev):

    -5.5378   4.8573   5.5061   6.1366   8.9893   9.1247   9.1283  10.8290
    13.1797  13.8067  14.9800  17.3226

          k =-0.1125 0.1125 0.0000 (  1177 PWs)   bands (ev):

    -5.6234   5.3381   5.7937   6.1798   8.9009   8.9931   9.0527  10.3468
    13.4482  13.8462  14.6579  17.3591

          k =-0.0750 0.0750 0.0000 (  1179 PWs)   bands (ev):

    -5.6848   5.7733   6.0249   6.2088   8.8377   8.8848   8.9601   9.9288
    13.6997  13.9019  14.4072  17.4152

          k =-0.0375 0.0375 0.0000 (  1161 PWs)   bands (ev):

    -5.7216   6.1022   6.1773   6.2254   8.7997   8.8127   8.8477   9.6595
    13.8879  13.9441  14.2479  17.4660

          k = 0.0000 0.0000 0.0000 (  1139 PWs)   bands (ev):

    -5.7340   6.2308   6.2308   6.2308   8.7871   8.7871   8.7871   9.5728
    13.9594  13.9594  14.1932  17.4866

     Writing all to output data dir ./out/si.save/
 
     init_run     :      0.04s CPU      0.05s WALL (       1 calls)
     electrons    :     13.83s CPU     14.00s WALL (       1 calls)

     Called by init_run:
     wfcinit      :      0.00s CPU      0.00s WALL (       1 calls)
     wfcinit:atom :      0.01s CPU      0.01s WALL (      81 calls)
     wfcinit:wfcr :      0.43s CPU      0.49s WALL (      81 calls)
     potinit      :      0.01s CPU      0.01s WALL (       1 calls)
     hinit0       :      0.02s CPU      0.02s WALL (       1 calls)

     Called by electrons:
     c_bands      :     13.83s CPU     14.00s WALL (       1 calls)
     v_of_rho     :      0.01s CPU      0.01s WALL (       1 calls)
     v_h          :      0.00s CPU      0.00s WALL (       1 calls)
     v_xc         :      0.01s CPU      0.01s WALL (       1 calls)

     Called by c_bands:
     init_us_2    :      0.02s CPU      0.02s WALL (      81 calls)
     init_us_2:cp :      0.02s CPU      0.02s WALL (      81 calls)
     cegterg      :     13.17s CPU     13.27s WALL (     213 calls)

     Called by sum_band:

     Called by *egterg:
     cdiaghg      :      0.57s CPU      0.60s WALL (    3591 calls)
     cegterg:over :      0.38s CPU      0.38s WALL (    3510 calls)
     cegterg:upda :      0.25s CPU      0.25s WALL (    3510 calls)
     cegterg:last :      0.36s CPU      0.36s WALL (    2065 calls)
     h_psi        :     11.86s CPU     11.98s WALL (    3804 calls)
     g_psi        :      0.06s CPU      0.06s WALL (    3510 calls)

     Called by h_psi:
     h_psi:calbec :      0.36s CPU      0.36s WALL (    3804 calls)
     vloc_psi     :     11.15s CPU     11.27s WALL (    3804 calls)
     add_vuspsi   :      0.30s CPU      0.30s WALL (    3804 calls)

     General routines
     calbec       :      0.35s CPU      0.35s WALL (    3804 calls)
     fft          :      0.00s CPU      0.00s WALL (      11 calls)
     fftw         :     10.05s CPU     10.16s WALL (   50614 calls)
     davcio       :      0.03s CPU      0.04s WALL (     162 calls)
 
     Parallel routines
 
     PWSCF        :     14.02s CPU     14.27s WALL

 
   This run was terminated on:  10:55:43   3Nov2022            

=------------------------------------------------------------------------------=
   JOB DONE.
=------------------------------------------------------------------------------=
