
     Program PWSCF v.7.1 starts on  1Nov2022 at 12: 1:49 

     This program is part of the open-source Quantum ESPRESSO suite
     for quantum simulation of materials; please cite
         "P. Giannozzi et al., J. Phys.:Condens. Matter 21 395502 (2009);
         "P. Giannozzi et al., J. Phys.:Condens. Matter 29 465901 (2017);
         "P. Giannozzi et al., J. Chem. Phys. 152 154105 (2020);
          URL http://www.quantum-espresso.org", 
     in publications or presentations arising from this work. More details at
     http://www.quantum-espresso.org/quote

     Parallel version (MPI), running on     1 processors

     MPI processes distributed on     1 nodes
     271 MiB available memory on the printing compute node when the environment starts
 
     Reading input from Si.bands.in

     Current dimensions of program PWSCF are:
     Max number of different atomic species (ntypx) = 10
     Max number of k-points (npk) =  40000
     Max angular momentum in pseudopotentials (lmaxx) =  4

     Atomic positions and unit cell read from directory:
     ./out/si.save/
     Atomic positions from file used, from input discarded
 
 
     Subspace diagonalization in iterative solution of the eigenvalue problem:
     a serial algorithm will be used

 
     G-vector sticks info
     --------------------
     sticks:   dense  smooth     PW     G-vecs:    dense   smooth      PW
     Sum         583     583    169                 9257     9257    1471
 
     Using Slab Decomposition
 


     bravais-lattice index     =            2
     lattice parameter (alat)  =      10.2622  a.u.
     unit-cell volume          =     270.1851 (a.u.)^3
     number of atoms/cell      =            2
     number of atomic types    =            1
     number of electrons       =         8.00
     number of Kohn-Sham states=           12
     kinetic-energy cutoff     =      40.0000  Ry
     charge density cutoff     =     160.0000  Ry
     Exchange-correlation= PBE
                           (   1   4   3   4   0   0   0)

     celldm(1)=  10.262200  celldm(2)=   0.000000  celldm(3)=   0.000000
     celldm(4)=   0.000000  celldm(5)=   0.000000  celldm(6)=   0.000000

     crystal axes: (cart. coord. in units of alat)
               a(1) = (  -0.500000   0.000000   0.500000 )  
               a(2) = (   0.000000   0.500000   0.500000 )  
               a(3) = (  -0.500000   0.500000   0.000000 )  

     reciprocal axes: (cart. coord. in units 2 pi/alat)
               b(1) = ( -1.000000 -1.000000  1.000000 )  
               b(2) = (  1.000000  1.000000  1.000000 )  
               b(3) = ( -1.000000  1.000000 -1.000000 )  


     PseudoPot. # 1 for Si read from file:
     ../../files/pseudo/Si.pbe_PseudoDojo.UPF
     MD5 check sum: 02fab3f35e82123ef5bf1cb05d5b1a5e
     Pseudo is Norm-conserving + core correction, Zval =  4.0
     Generated using ONCVPSP code by D. R. Hamann
     Using radial grid of 1510 points,  6 beta functions with: 
                l(1) =   0
                l(2) =   0
                l(3) =   1
                l(4) =   1
                l(5) =   2
                l(6) =   2

     atomic species   valence    mass     pseudopotential
        Si             4.00    28.08600     Si( 1.00)

     48 Sym. Ops., with inversion, found (24 have fractional translation)


                                    s                        frac. trans.

      isym =  1     identity                                     

 cryst.   s( 1) = (     1          0          0      )
                  (     0          1          0      )
                  (     0          0          1      )

 cart.    s( 1) = (  1.0000000  0.0000000  0.0000000 )
                  (  0.0000000  1.0000000  0.0000000 )
                  (  0.0000000  0.0000000  1.0000000 )


      isym =  2     180 deg rotation - cart. axis [0,0,1]        

 cryst.   s( 2) = (     0          1         -1      )
                  (     1          0         -1      )
                  (     0          0         -1      )

 cart.    s( 2) = ( -1.0000000  0.0000000  0.0000000 )
                  (  0.0000000 -1.0000000  0.0000000 )
                  (  0.0000000  0.0000000  1.0000000 )


      isym =  3     180 deg rotation - cart. axis [0,1,0]        

 cryst.   s( 3) = (    -1          0          0      )
                  (    -1          0          1      )
                  (    -1          1          0      )

 cart.    s( 3) = ( -1.0000000  0.0000000  0.0000000 )
                  (  0.0000000  1.0000000  0.0000000 )
                  (  0.0000000  0.0000000 -1.0000000 )


      isym =  4     180 deg rotation - cart. axis [1,0,0]        

 cryst.   s( 4) = (     0         -1          1      )
                  (     0         -1          0      )
                  (     1         -1          0      )

 cart.    s( 4) = (  1.0000000  0.0000000  0.0000000 )
                  (  0.0000000 -1.0000000  0.0000000 )
                  (  0.0000000  0.0000000 -1.0000000 )


      isym =  5     180 deg rotation - cart. axis [1,1,0]        

 cryst.   s( 5) = (     0         -1          0      )    f =( -0.2500000 )
                  (    -1          0          0      )       ( -0.2500000 )
                  (     0          0         -1      )       ( -0.2500000 )

 cart.    s( 5) = (  0.0000000  1.0000000  0.0000000 )    f =(  0.2500000 )
                  (  1.0000000  0.0000000  0.0000000 )       ( -0.2500000 )
                  (  0.0000000  0.0000000 -1.0000000 )       ( -0.2500000 )


      isym =  6     180 deg rotation - cart. axis [1,-1,0]       

 cryst.   s( 6) = (    -1          0          1      )    f =( -0.2500000 )
                  (     0         -1          1      )       ( -0.2500000 )
                  (     0          0          1      )       ( -0.2500000 )

 cart.    s( 6) = (  0.0000000 -1.0000000  0.0000000 )    f =(  0.2500000 )
                  ( -1.0000000  0.0000000  0.0000000 )       ( -0.2500000 )
                  (  0.0000000  0.0000000 -1.0000000 )       ( -0.2500000 )


      isym =  7      90 deg rotation - cart. axis [0,0,-1]       

 cryst.   s( 7) = (     0          1          0      )    f =( -0.2500000 )
                  (     0          1         -1      )       ( -0.2500000 )
                  (    -1          1          0      )       ( -0.2500000 )

 cart.    s( 7) = (  0.0000000  1.0000000  0.0000000 )    f =(  0.2500000 )
                  ( -1.0000000  0.0000000  0.0000000 )       ( -0.2500000 )
                  (  0.0000000  0.0000000  1.0000000 )       ( -0.2500000 )


      isym =  8      90 deg rotation - cart. axis [0,0,1]        

 cryst.   s( 8) = (     1          0         -1      )    f =( -0.2500000 )
                  (     1          0          0      )       ( -0.2500000 )
                  (     1         -1          0      )       ( -0.2500000 )

 cart.    s( 8) = (  0.0000000 -1.0000000  0.0000000 )    f =(  0.2500000 )
                  (  1.0000000  0.0000000  0.0000000 )       ( -0.2500000 )
                  (  0.0000000  0.0000000  1.0000000 )       ( -0.2500000 )


      isym =  9     180 deg rotation - cart. axis [1,0,1]        

 cryst.   s( 9) = (    -1          0          0      )    f =( -0.2500000 )
                  (     0          0         -1      )       ( -0.2500000 )
                  (     0         -1          0      )       ( -0.2500000 )

 cart.    s( 9) = (  0.0000000  0.0000000  1.0000000 )    f =(  0.2500000 )
                  (  0.0000000 -1.0000000  0.0000000 )       ( -0.2500000 )
                  (  1.0000000  0.0000000  0.0000000 )       ( -0.2500000 )


      isym = 10     180 deg rotation - cart. axis [-1,0,1]       

 cryst.   s(10) = (     1          0          0      )    f =( -0.2500000 )
                  (     1         -1          0      )       ( -0.2500000 )
                  (     1          0         -1      )       ( -0.2500000 )

 cart.    s(10) = (  0.0000000  0.0000000 -1.0000000 )    f =(  0.2500000 )
                  (  0.0000000 -1.0000000  0.0000000 )       ( -0.2500000 )
                  ( -1.0000000  0.0000000  0.0000000 )       ( -0.2500000 )


      isym = 11      90 deg rotation - cart. axis [0,1,0]        

 cryst.   s(11) = (     0          1         -1      )    f =( -0.2500000 )
                  (    -1          1          0      )       ( -0.2500000 )
                  (     0          1          0      )       ( -0.2500000 )

 cart.    s(11) = (  0.0000000  0.0000000  1.0000000 )    f =(  0.2500000 )
                  (  0.0000000  1.0000000  0.0000000 )       ( -0.2500000 )
                  ( -1.0000000  0.0000000  0.0000000 )       ( -0.2500000 )


      isym = 12      90 deg rotation - cart. axis [0,-1,0]       

 cryst.   s(12) = (     0         -1          1      )    f =( -0.2500000 )
                  (     0          0          1      )       ( -0.2500000 )
                  (    -1          0          1      )       ( -0.2500000 )

 cart.    s(12) = (  0.0000000  0.0000000 -1.0000000 )    f =(  0.2500000 )
                  (  0.0000000  1.0000000  0.0000000 )       ( -0.2500000 )
                  (  1.0000000  0.0000000  0.0000000 )       ( -0.2500000 )


      isym = 13     180 deg rotation - cart. axis [0,1,1]        

 cryst.   s(13) = (    -1          1          0      )    f =( -0.2500000 )
                  (     0          1          0      )       ( -0.2500000 )
                  (     0          1         -1      )       ( -0.2500000 )

 cart.    s(13) = ( -1.0000000  0.0000000  0.0000000 )    f =(  0.2500000 )
                  (  0.0000000  0.0000000  1.0000000 )       ( -0.2500000 )
                  (  0.0000000  1.0000000  0.0000000 )       ( -0.2500000 )


      isym = 14     180 deg rotation - cart. axis [0,1,-1]       

 cryst.   s(14) = (     0          0         -1      )    f =( -0.2500000 )
                  (     0         -1          0      )       ( -0.2500000 )
                  (    -1          0          0      )       ( -0.2500000 )

 cart.    s(14) = ( -1.0000000  0.0000000  0.0000000 )    f =(  0.2500000 )
                  (  0.0000000  0.0000000 -1.0000000 )       ( -0.2500000 )
                  (  0.0000000 -1.0000000  0.0000000 )       ( -0.2500000 )


      isym = 15      90 deg rotation - cart. axis [-1,0,0]       

 cryst.   s(15) = (     0          0          1      )    f =( -0.2500000 )
                  (    -1          0          1      )       ( -0.2500000 )
                  (     0         -1          1      )       ( -0.2500000 )

 cart.    s(15) = (  1.0000000  0.0000000  0.0000000 )    f =(  0.2500000 )
                  (  0.0000000  0.0000000  1.0000000 )       ( -0.2500000 )
                  (  0.0000000 -1.0000000  0.0000000 )       ( -0.2500000 )


      isym = 16      90 deg rotation - cart. axis [1,0,0]        

 cryst.   s(16) = (     1         -1          0      )    f =( -0.2500000 )
                  (     1          0         -1      )       ( -0.2500000 )
                  (     1          0          0      )       ( -0.2500000 )

 cart.    s(16) = (  1.0000000  0.0000000  0.0000000 )    f =(  0.2500000 )
                  (  0.0000000  0.0000000 -1.0000000 )       ( -0.2500000 )
                  (  0.0000000  1.0000000  0.0000000 )       ( -0.2500000 )


      isym = 17     120 deg rotation - cart. axis [-1,-1,-1]     

 cryst.   s(17) = (    -1          0          1      )
                  (    -1          1          0      )
                  (    -1          0          0      )

 cart.    s(17) = (  0.0000000  1.0000000  0.0000000 )
                  (  0.0000000  0.0000000  1.0000000 )
                  (  1.0000000  0.0000000  0.0000000 )


      isym = 18     120 deg rotation - cart. axis [-1,1,1]       

 cryst.   s(18) = (     0          1          0      )
                  (     0          0          1      )
                  (     1          0          0      )

 cart.    s(18) = (  0.0000000 -1.0000000  0.0000000 )
                  (  0.0000000  0.0000000  1.0000000 )
                  ( -1.0000000  0.0000000  0.0000000 )


      isym = 19     120 deg rotation - cart. axis [1,1,-1]       

 cryst.   s(19) = (     1          0         -1      )
                  (     0          0         -1      )
                  (     0          1         -1      )

 cart.    s(19) = (  0.0000000  1.0000000  0.0000000 )
                  (  0.0000000  0.0000000 -1.0000000 )
                  ( -1.0000000  0.0000000  0.0000000 )


      isym = 20     120 deg rotation - cart. axis [1,-1,1]       

 cryst.   s(20) = (     0         -1          0      )
                  (     1         -1          0      )
                  (     0         -1          1      )

 cart.    s(20) = (  0.0000000 -1.0000000  0.0000000 )
                  (  0.0000000  0.0000000 -1.0000000 )
                  (  1.0000000  0.0000000  0.0000000 )


      isym = 21     120 deg rotation - cart. axis [1,1,1]        

 cryst.   s(21) = (     0          0         -1      )
                  (     0          1         -1      )
                  (     1          0         -1      )

 cart.    s(21) = (  0.0000000  0.0000000  1.0000000 )
                  (  1.0000000  0.0000000  0.0000000 )
                  (  0.0000000  1.0000000  0.0000000 )


      isym = 22     120 deg rotation - cart. axis [-1,1,-1]      

 cryst.   s(22) = (    -1          1          0      )
                  (    -1          0          0      )
                  (    -1          0          1      )

 cart.    s(22) = (  0.0000000  0.0000000  1.0000000 )
                  ( -1.0000000  0.0000000  0.0000000 )
                  (  0.0000000 -1.0000000  0.0000000 )


      isym = 23     120 deg rotation - cart. axis [1,-1,-1]      

 cryst.   s(23) = (     0          0          1      )
                  (     1          0          0      )
                  (     0          1          0      )

 cart.    s(23) = (  0.0000000  0.0000000 -1.0000000 )
                  ( -1.0000000  0.0000000  0.0000000 )
                  (  0.0000000  1.0000000  0.0000000 )


      isym = 24     120 deg rotation - cart. axis [-1,-1,1]      

 cryst.   s(24) = (     1         -1          0      )
                  (     0         -1          1      )
                  (     0         -1          0      )

 cart.    s(24) = (  0.0000000  0.0000000 -1.0000000 )
                  (  1.0000000  0.0000000  0.0000000 )
                  (  0.0000000 -1.0000000  0.0000000 )


      isym = 25     inversion                                    

 cryst.   s(25) = (    -1          0          0      )    f =( -0.2500000 )
                  (     0         -1          0      )       ( -0.2500000 )
                  (     0          0         -1      )       ( -0.2500000 )

 cart.    s(25) = ( -1.0000000  0.0000000  0.0000000 )    f =(  0.2500000 )
                  (  0.0000000 -1.0000000  0.0000000 )       ( -0.2500000 )
                  (  0.0000000  0.0000000 -1.0000000 )       ( -0.2500000 )


      isym = 26     inv. 180 deg rotation - cart. axis [0,0,1]   

 cryst.   s(26) = (     0         -1          1      )    f =( -0.2500000 )
                  (    -1          0          1      )       ( -0.2500000 )
                  (     0          0          1      )       ( -0.2500000 )

 cart.    s(26) = (  1.0000000  0.0000000  0.0000000 )    f =(  0.2500000 )
                  (  0.0000000  1.0000000  0.0000000 )       ( -0.2500000 )
                  (  0.0000000  0.0000000 -1.0000000 )       ( -0.2500000 )


      isym = 27     inv. 180 deg rotation - cart. axis [0,1,0]   

 cryst.   s(27) = (     1          0          0      )    f =( -0.2500000 )
                  (     1          0         -1      )       ( -0.2500000 )
                  (     1         -1          0      )       ( -0.2500000 )

 cart.    s(27) = (  1.0000000  0.0000000  0.0000000 )    f =(  0.2500000 )
                  (  0.0000000 -1.0000000  0.0000000 )       ( -0.2500000 )
                  (  0.0000000  0.0000000  1.0000000 )       ( -0.2500000 )


      isym = 28     inv. 180 deg rotation - cart. axis [1,0,0]   

 cryst.   s(28) = (     0          1         -1      )    f =( -0.2500000 )
                  (     0          1          0      )       ( -0.2500000 )
                  (    -1          1          0      )       ( -0.2500000 )

 cart.    s(28) = ( -1.0000000  0.0000000  0.0000000 )    f =(  0.2500000 )
                  (  0.0000000  1.0000000  0.0000000 )       ( -0.2500000 )
                  (  0.0000000  0.0000000  1.0000000 )       ( -0.2500000 )


      isym = 29     inv. 180 deg rotation - cart. axis [1,1,0]   

 cryst.   s(29) = (     0          1          0      )
                  (     1          0          0      )
                  (     0          0          1      )

 cart.    s(29) = (  0.0000000 -1.0000000  0.0000000 )
                  ( -1.0000000  0.0000000  0.0000000 )
                  (  0.0000000  0.0000000  1.0000000 )


      isym = 30     inv. 180 deg rotation - cart. axis [1,-1,0]  

 cryst.   s(30) = (     1          0         -1      )
                  (     0          1         -1      )
                  (     0          0         -1      )

 cart.    s(30) = (  0.0000000  1.0000000  0.0000000 )
                  (  1.0000000  0.0000000  0.0000000 )
                  (  0.0000000  0.0000000  1.0000000 )


      isym = 31     inv.  90 deg rotation - cart. axis [0,0,-1]  

 cryst.   s(31) = (     0         -1          0      )
                  (     0         -1          1      )
                  (     1         -1          0      )

 cart.    s(31) = (  0.0000000 -1.0000000  0.0000000 )
                  (  1.0000000  0.0000000  0.0000000 )
                  (  0.0000000  0.0000000 -1.0000000 )


      isym = 32     inv.  90 deg rotation - cart. axis [0,0,1]   

 cryst.   s(32) = (    -1          0          1      )
                  (    -1          0          0      )
                  (    -1          1          0      )

 cart.    s(32) = (  0.0000000  1.0000000  0.0000000 )
                  ( -1.0000000  0.0000000  0.0000000 )
                  (  0.0000000  0.0000000 -1.0000000 )


      isym = 33     inv. 180 deg rotation - cart. axis [1,0,1]   

 cryst.   s(33) = (     1          0          0      )
                  (     0          0          1      )
                  (     0          1          0      )

 cart.    s(33) = (  0.0000000  0.0000000 -1.0000000 )
                  (  0.0000000  1.0000000  0.0000000 )
                  ( -1.0000000  0.0000000  0.0000000 )


      isym = 34     inv. 180 deg rotation - cart. axis [-1,0,1]  

 cryst.   s(34) = (    -1          0          0      )
                  (    -1          1          0      )
                  (    -1          0          1      )

 cart.    s(34) = (  0.0000000  0.0000000  1.0000000 )
                  (  0.0000000  1.0000000  0.0000000 )
                  (  1.0000000  0.0000000  0.0000000 )


      isym = 35     inv.  90 deg rotation - cart. axis [0,1,0]   

 cryst.   s(35) = (     0         -1          1      )
                  (     1         -1          0      )
                  (     0         -1          0      )

 cart.    s(35) = (  0.0000000  0.0000000 -1.0000000 )
                  (  0.0000000 -1.0000000  0.0000000 )
                  (  1.0000000  0.0000000  0.0000000 )


      isym = 36     inv.  90 deg rotation - cart. axis [0,-1,0]  

 cryst.   s(36) = (     0          1         -1      )
                  (     0          0         -1      )
                  (     1          0         -1      )

 cart.    s(36) = (  0.0000000  0.0000000  1.0000000 )
                  (  0.0000000 -1.0000000  0.0000000 )
                  ( -1.0000000  0.0000000  0.0000000 )


      isym = 37     inv. 180 deg rotation - cart. axis [0,1,1]   

 cryst.   s(37) = (     1         -1          0      )
                  (     0         -1          0      )
                  (     0         -1          1      )

 cart.    s(37) = (  1.0000000  0.0000000  0.0000000 )
                  (  0.0000000  0.0000000 -1.0000000 )
                  (  0.0000000 -1.0000000  0.0000000 )


      isym = 38     inv. 180 deg rotation - cart. axis [0,1,-1]  

 cryst.   s(38) = (     0          0          1      )
                  (     0          1          0      )
                  (     1          0          0      )

 cart.    s(38) = (  1.0000000  0.0000000  0.0000000 )
                  (  0.0000000  0.0000000  1.0000000 )
                  (  0.0000000  1.0000000  0.0000000 )


      isym = 39     inv.  90 deg rotation - cart. axis [-1,0,0]  

 cryst.   s(39) = (     0          0         -1      )
                  (     1          0         -1      )
                  (     0          1         -1      )

 cart.    s(39) = ( -1.0000000  0.0000000  0.0000000 )
                  (  0.0000000  0.0000000 -1.0000000 )
                  (  0.0000000  1.0000000  0.0000000 )


      isym = 40     inv.  90 deg rotation - cart. axis [1,0,0]   

 cryst.   s(40) = (    -1          1          0      )
                  (    -1          0          1      )
                  (    -1          0          0      )

 cart.    s(40) = ( -1.0000000  0.0000000  0.0000000 )
                  (  0.0000000  0.0000000  1.0000000 )
                  (  0.0000000 -1.0000000  0.0000000 )


      isym = 41     inv. 120 deg rotation - cart. axis [-1,-1,-1]

 cryst.   s(41) = (     1          0         -1      )    f =( -0.2500000 )
                  (     1         -1          0      )       ( -0.2500000 )
                  (     1          0          0      )       ( -0.2500000 )

 cart.    s(41) = (  0.0000000 -1.0000000  0.0000000 )    f =(  0.2500000 )
                  (  0.0000000  0.0000000 -1.0000000 )       ( -0.2500000 )
                  ( -1.0000000  0.0000000  0.0000000 )       ( -0.2500000 )


      isym = 42     inv. 120 deg rotation - cart. axis [-1,1,1]  

 cryst.   s(42) = (     0         -1          0      )    f =( -0.2500000 )
                  (     0          0         -1      )       ( -0.2500000 )
                  (    -1          0          0      )       ( -0.2500000 )

 cart.    s(42) = (  0.0000000  1.0000000  0.0000000 )    f =(  0.2500000 )
                  (  0.0000000  0.0000000 -1.0000000 )       ( -0.2500000 )
                  (  1.0000000  0.0000000  0.0000000 )       ( -0.2500000 )


      isym = 43     inv. 120 deg rotation - cart. axis [1,1,-1]  

 cryst.   s(43) = (    -1          0          1      )    f =( -0.2500000 )
                  (     0          0          1      )       ( -0.2500000 )
                  (     0         -1          1      )       ( -0.2500000 )

 cart.    s(43) = (  0.0000000 -1.0000000  0.0000000 )    f =(  0.2500000 )
                  (  0.0000000  0.0000000  1.0000000 )       ( -0.2500000 )
                  (  1.0000000  0.0000000  0.0000000 )       ( -0.2500000 )


      isym = 44     inv. 120 deg rotation - cart. axis [1,-1,1]  

 cryst.   s(44) = (     0          1          0      )    f =( -0.2500000 )
                  (    -1          1          0      )       ( -0.2500000 )
                  (     0          1         -1      )       ( -0.2500000 )

 cart.    s(44) = (  0.0000000  1.0000000  0.0000000 )    f =(  0.2500000 )
                  (  0.0000000  0.0000000  1.0000000 )       ( -0.2500000 )
                  ( -1.0000000  0.0000000  0.0000000 )       ( -0.2500000 )


      isym = 45     inv. 120 deg rotation - cart. axis [1,1,1]   

 cryst.   s(45) = (     0          0          1      )    f =( -0.2500000 )
                  (     0         -1          1      )       ( -0.2500000 )
                  (    -1          0          1      )       ( -0.2500000 )

 cart.    s(45) = (  0.0000000  0.0000000 -1.0000000 )    f =(  0.2500000 )
                  ( -1.0000000  0.0000000  0.0000000 )       ( -0.2500000 )
                  (  0.0000000 -1.0000000  0.0000000 )       ( -0.2500000 )


      isym = 46     inv. 120 deg rotation - cart. axis [-1,1,-1] 

 cryst.   s(46) = (     1         -1          0      )    f =( -0.2500000 )
                  (     1          0          0      )       ( -0.2500000 )
                  (     1          0         -1      )       ( -0.2500000 )

 cart.    s(46) = (  0.0000000  0.0000000 -1.0000000 )    f =(  0.2500000 )
                  (  1.0000000  0.0000000  0.0000000 )       ( -0.2500000 )
                  (  0.0000000  1.0000000  0.0000000 )       ( -0.2500000 )


      isym = 47     inv. 120 deg rotation - cart. axis [1,-1,-1] 

 cryst.   s(47) = (     0          0         -1      )    f =( -0.2500000 )
                  (    -1          0          0      )       ( -0.2500000 )
                  (     0         -1          0      )       ( -0.2500000 )

 cart.    s(47) = (  0.0000000  0.0000000  1.0000000 )    f =(  0.2500000 )
                  (  1.0000000  0.0000000  0.0000000 )       ( -0.2500000 )
                  (  0.0000000 -1.0000000  0.0000000 )       ( -0.2500000 )


      isym = 48     inv. 120 deg rotation - cart. axis [-1,-1,1] 

 cryst.   s(48) = (    -1          1          0      )    f =( -0.2500000 )
                  (     0          1         -1      )       ( -0.2500000 )
                  (     0          1          0      )       ( -0.2500000 )

 cart.    s(48) = (  0.0000000  0.0000000  1.0000000 )    f =(  0.2500000 )
                  ( -1.0000000  0.0000000  0.0000000 )       ( -0.2500000 )
                  (  0.0000000  1.0000000  0.0000000 )       ( -0.2500000 )


     point group O_h (m-3m) 
     there are 10 classes
     the character table:

       E     8C3   3C2   6C4   6C2'  i     8S6   3s_h  6S4   6s_d 
A_1g   1.00  1.00  1.00  1.00  1.00  1.00  1.00  1.00  1.00  1.00
A_2g   1.00  1.00  1.00 -1.00 -1.00  1.00  1.00  1.00 -1.00 -1.00
E_g    2.00 -1.00  2.00  0.00  0.00  2.00 -1.00  2.00  0.00  0.00
T_1g   3.00  0.00 -1.00  1.00 -1.00  3.00  0.00 -1.00  1.00 -1.00
T_2g   3.00  0.00 -1.00 -1.00  1.00  3.00  0.00 -1.00 -1.00  1.00
A_1u   1.00  1.00  1.00  1.00  1.00 -1.00 -1.00 -1.00 -1.00 -1.00
A_2u   1.00  1.00  1.00 -1.00 -1.00 -1.00 -1.00 -1.00  1.00  1.00
E_u    2.00 -1.00  2.00  0.00  0.00 -2.00  1.00 -2.00  0.00  0.00
T_1u   3.00  0.00 -1.00  1.00 -1.00 -3.00  0.00  1.00 -1.00  1.00
T_2u   3.00  0.00 -1.00 -1.00  1.00 -3.00  0.00  1.00  1.00 -1.00

     the symmetry operations in each class and the name of the first element:

     E        1
          identity                                               
     8C3     17   19   20   18   24   21   22   23
          120 deg rotation - cart. axis [-1,-1,-1]               
     3C2      2    4    3
          180 deg rotation - cart. axis [0,0,1]                  
     6C4      7    8   15   16   12   11
           90 deg rotation - cart. axis [0,0,-1]                 
     6C2'     5    6   14   13   10    9
          180 deg rotation - cart. axis [1,1,0]                  
     i       25
          inversion                                              
     8S6     41   43   44   42   48   45   46   47
          inv. 120 deg rotation - cart. axis [-1,-1,-1]          
     3s_h    26   28   27
          inv. 180 deg rotation - cart. axis [0,0,1]             
     6S4     31   32   39   40   36   35
          inv.  90 deg rotation - cart. axis [0,0,-1]            
     6s_d    29   30   38   37   34   33
          inv. 180 deg rotation - cart. axis [1,1,0]             

   Cartesian axes

     site n.     atom                  positions (alat units)
         1           Si  tau(   1) = (   0.0000000   0.0000000   0.0000000  )
         2           Si  tau(   2) = (  -0.2500000   0.2500000   0.2500000  )

   Crystallographic axes

     site n.     atom                  positions (cryst. coord.)
         1           Si  tau(   1) = (  0.0000000  0.0000000  0.0000000  )
         2           Si  tau(   2) = (  0.2500000  0.2500000  0.2500000  )

     number of k points=    81
                       cart. coord. in units 2pi/alat
        k(    1) = (  -0.5000000   0.5000000   0.5000000), wk =   0.0246914
        k(    2) = (  -0.4750000   0.4750000   0.4750000), wk =   0.0246914
        k(    3) = (  -0.4500000   0.4500000   0.4500000), wk =   0.0246914
        k(    4) = (  -0.4250000   0.4250000   0.4250000), wk =   0.0246914
        k(    5) = (  -0.4000000   0.4000000   0.4000000), wk =   0.0246914
        k(    6) = (  -0.3750000   0.3750000   0.3750000), wk =   0.0246914
        k(    7) = (  -0.3500000   0.3500000   0.3500000), wk =   0.0246914
        k(    8) = (  -0.3250000   0.3250000   0.3250000), wk =   0.0246914
        k(    9) = (  -0.3000000   0.3000000   0.3000000), wk =   0.0246914
        k(   10) = (  -0.2750000   0.2750000   0.2750000), wk =   0.0246914
        k(   11) = (  -0.2500000   0.2500000   0.2500000), wk =   0.0246914
        k(   12) = (  -0.2250000   0.2250000   0.2250000), wk =   0.0246914
        k(   13) = (  -0.2000000   0.2000000   0.2000000), wk =   0.0246914
        k(   14) = (  -0.1750000   0.1750000   0.1750000), wk =   0.0246914
        k(   15) = (  -0.1500000   0.1500000   0.1500000), wk =   0.0246914
        k(   16) = (  -0.1250000   0.1250000   0.1250000), wk =   0.0246914
        k(   17) = (  -0.1000000   0.1000000   0.1000000), wk =   0.0246914
        k(   18) = (  -0.0750000   0.0750000   0.0750000), wk =   0.0246914
        k(   19) = (  -0.0500000   0.0500000   0.0500000), wk =   0.0246914
        k(   20) = (  -0.0250000   0.0250000   0.0250000), wk =   0.0246914
        k(   21) = (   0.0000000   0.0000000   0.0000000), wk =   0.0246914
        k(   22) = (  -0.0500000   0.0000000   0.0000000), wk =   0.0246914
        k(   23) = (  -0.1000000   0.0000000   0.0000000), wk =   0.0246914
        k(   24) = (  -0.1500000   0.0000000   0.0000000), wk =   0.0246914
        k(   25) = (  -0.2000000   0.0000000   0.0000000), wk =   0.0246914
        k(   26) = (  -0.2500000   0.0000000   0.0000000), wk =   0.0246914
        k(   27) = (  -0.3000000   0.0000000   0.0000000), wk =   0.0246914
        k(   28) = (  -0.3500000   0.0000000   0.0000000), wk =   0.0246914
        k(   29) = (  -0.4000000   0.0000000   0.0000000), wk =   0.0246914
        k(   30) = (  -0.4500000   0.0000000   0.0000000), wk =   0.0246914
        k(   31) = (  -0.5000000   0.0000000   0.0000000), wk =   0.0246914
        k(   32) = (  -0.5500000   0.0000000   0.0000000), wk =   0.0246914
        k(   33) = (  -0.6000000   0.0000000   0.0000000), wk =   0.0246914
        k(   34) = (  -0.6500000   0.0000000   0.0000000), wk =   0.0246914
        k(   35) = (  -0.7000000   0.0000000   0.0000000), wk =   0.0246914
        k(   36) = (  -0.7500000   0.0000000   0.0000000), wk =   0.0246914
        k(   37) = (  -0.8000000   0.0000000   0.0000000), wk =   0.0246914
        k(   38) = (  -0.8500000   0.0000000   0.0000000), wk =   0.0246914
        k(   39) = (  -0.9000000   0.0000000   0.0000000), wk =   0.0246914
        k(   40) = (  -0.9500000   0.0000000   0.0000000), wk =   0.0246914
        k(   41) = (  -1.0000000   0.0000000   0.0000000), wk =   0.0246914
        k(   42) = (  -0.9875000   0.0375000   0.0000000), wk =   0.0246914
        k(   43) = (  -0.9750000   0.0750000   0.0000000), wk =   0.0246914
        k(   44) = (  -0.9625000   0.1125000   0.0000000), wk =   0.0246914
        k(   45) = (  -0.9500000   0.1500000  -0.0000000), wk =   0.0246914
        k(   46) = (  -0.9375000   0.1875000   0.0000000), wk =   0.0246914
        k(   47) = (  -0.9250000   0.2250000   0.0000000), wk =   0.0246914
        k(   48) = (  -0.9125000   0.2625000   0.0000000), wk =   0.0246914
        k(   49) = (  -0.9000000   0.3000000   0.0000000), wk =   0.0246914
        k(   50) = (  -0.8875000   0.3375000   0.0000000), wk =   0.0246914
        k(   51) = (  -0.8750000   0.3750000   0.0000000), wk =   0.0246914
        k(   52) = (  -0.8625000   0.4125000   0.0000000), wk =   0.0246914
        k(   53) = (  -0.8500000   0.4500000   0.0000000), wk =   0.0246914
        k(   54) = (  -0.8375000   0.4875000   0.0000000), wk =   0.0246914
        k(   55) = (  -0.8250000   0.5250000   0.0000000), wk =   0.0246914
        k(   56) = (  -0.8125000   0.5625000  -0.0000000), wk =   0.0246914
        k(   57) = (  -0.8000000   0.6000000   0.0000000), wk =   0.0246914
        k(   58) = (  -0.7875000   0.6375000  -0.0000000), wk =   0.0246914
        k(   59) = (  -0.7750000   0.6750000   0.0000000), wk =   0.0246914
        k(   60) = (  -0.7625000   0.7125000  -0.0000000), wk =   0.0246914
        k(   61) = (  -0.7500000   0.7500000   0.0000000), wk =   0.0246914
        k(   62) = (  -0.7125000   0.7125000   0.0000000), wk =   0.0246914
        k(   63) = (  -0.6750000   0.6750000   0.0000000), wk =   0.0246914
        k(   64) = (  -0.6375000   0.6375000   0.0000000), wk =   0.0246914
        k(   65) = (  -0.6000000   0.6000000   0.0000000), wk =   0.0246914
        k(   66) = (  -0.5625000   0.5625000   0.0000000), wk =   0.0246914
        k(   67) = (  -0.5250000   0.5250000   0.0000000), wk =   0.0246914
        k(   68) = (  -0.4875000   0.4875000   0.0000000), wk =   0.0246914
        k(   69) = (  -0.4500000   0.4500000   0.0000000), wk =   0.0246914
        k(   70) = (  -0.4125000   0.4125000   0.0000000), wk =   0.0246914
        k(   71) = (  -0.3750000   0.3750000   0.0000000), wk =   0.0246914
        k(   72) = (  -0.3375000   0.3375000   0.0000000), wk =   0.0246914
        k(   73) = (  -0.3000000   0.3000000   0.0000000), wk =   0.0246914
        k(   74) = (  -0.2625000   0.2625000   0.0000000), wk =   0.0246914
        k(   75) = (  -0.2250000   0.2250000   0.0000000), wk =   0.0246914
        k(   76) = (  -0.1875000   0.1875000   0.0000000), wk =   0.0246914
        k(   77) = (  -0.1500000   0.1500000   0.0000000), wk =   0.0246914
        k(   78) = (  -0.1125000   0.1125000   0.0000000), wk =   0.0246914
        k(   79) = (  -0.0750000   0.0750000   0.0000000), wk =   0.0246914
        k(   80) = (  -0.0375000   0.0375000   0.0000000), wk =   0.0246914
        k(   81) = (   0.0000000   0.0000000   0.0000000), wk =   0.0246914

                       cryst. coord.
        k(    1) = (   0.5000000   0.5000000   0.5000000), wk =   0.0246914
        k(    2) = (   0.4750000   0.4750000   0.4750000), wk =   0.0246914
        k(    3) = (   0.4500000   0.4500000   0.4500000), wk =   0.0246914
        k(    4) = (   0.4250000   0.4250000   0.4250000), wk =   0.0246914
        k(    5) = (   0.4000000   0.4000000   0.4000000), wk =   0.0246914
        k(    6) = (   0.3750000   0.3750000   0.3750000), wk =   0.0246914
        k(    7) = (   0.3500000   0.3500000   0.3500000), wk =   0.0246914
        k(    8) = (   0.3250000   0.3250000   0.3250000), wk =   0.0246914
        k(    9) = (   0.3000000   0.3000000   0.3000000), wk =   0.0246914
        k(   10) = (   0.2750000   0.2750000   0.2750000), wk =   0.0246914
        k(   11) = (   0.2500000   0.2500000   0.2500000), wk =   0.0246914
        k(   12) = (   0.2250000   0.2250000   0.2250000), wk =   0.0246914
        k(   13) = (   0.2000000   0.2000000   0.2000000), wk =   0.0246914
        k(   14) = (   0.1750000   0.1750000   0.1750000), wk =   0.0246914
        k(   15) = (   0.1500000   0.1500000   0.1500000), wk =   0.0246914
        k(   16) = (   0.1250000   0.1250000   0.1250000), wk =   0.0246914
        k(   17) = (   0.1000000   0.1000000   0.1000000), wk =   0.0246914
        k(   18) = (   0.0750000   0.0750000   0.0750000), wk =   0.0246914
        k(   19) = (   0.0500000   0.0500000   0.0500000), wk =   0.0246914
        k(   20) = (   0.0250000   0.0250000   0.0250000), wk =   0.0246914
        k(   21) = (   0.0000000   0.0000000   0.0000000), wk =   0.0246914
        k(   22) = (   0.0250000   0.0000000   0.0250000), wk =   0.0246914
        k(   23) = (   0.0500000   0.0000000   0.0500000), wk =   0.0246914
        k(   24) = (   0.0750000   0.0000000   0.0750000), wk =   0.0246914
        k(   25) = (   0.1000000   0.0000000   0.1000000), wk =   0.0246914
        k(   26) = (   0.1250000   0.0000000   0.1250000), wk =   0.0246914
        k(   27) = (   0.1500000   0.0000000   0.1500000), wk =   0.0246914
        k(   28) = (   0.1750000   0.0000000   0.1750000), wk =   0.0246914
        k(   29) = (   0.2000000   0.0000000   0.2000000), wk =   0.0246914
        k(   30) = (   0.2250000   0.0000000   0.2250000), wk =   0.0246914
        k(   31) = (   0.2500000   0.0000000   0.2500000), wk =   0.0246914
        k(   32) = (   0.2750000   0.0000000   0.2750000), wk =   0.0246914
        k(   33) = (   0.3000000   0.0000000   0.3000000), wk =   0.0246914
        k(   34) = (   0.3250000   0.0000000   0.3250000), wk =   0.0246914
        k(   35) = (   0.3500000   0.0000000   0.3500000), wk =   0.0246914
        k(   36) = (   0.3750000   0.0000000   0.3750000), wk =   0.0246914
        k(   37) = (   0.4000000   0.0000000   0.4000000), wk =   0.0246914
        k(   38) = (   0.4250000   0.0000000   0.4250000), wk =   0.0246914
        k(   39) = (   0.4500000   0.0000000   0.4500000), wk =   0.0246914
        k(   40) = (   0.4750000   0.0000000   0.4750000), wk =   0.0246914
        k(   41) = (   0.5000000   0.0000000   0.5000000), wk =   0.0246914
        k(   42) = (   0.4937500   0.0187500   0.5125000), wk =   0.0246914
        k(   43) = (   0.4875000   0.0375000   0.5250000), wk =   0.0246914
        k(   44) = (   0.4812500   0.0562500   0.5375000), wk =   0.0246914
        k(   45) = (   0.4750000   0.0750000   0.5500000), wk =   0.0246914
        k(   46) = (   0.4687500   0.0937500   0.5625000), wk =   0.0246914
        k(   47) = (   0.4625000   0.1125000   0.5750000), wk =   0.0246914
        k(   48) = (   0.4562500   0.1312500   0.5875000), wk =   0.0246914
        k(   49) = (   0.4500000   0.1500000   0.6000000), wk =   0.0246914
        k(   50) = (   0.4437500   0.1687500   0.6125000), wk =   0.0246914
        k(   51) = (   0.4375000   0.1875000   0.6250000), wk =   0.0246914
        k(   52) = (   0.4312500   0.2062500   0.6375000), wk =   0.0246914
        k(   53) = (   0.4250000   0.2250000   0.6500000), wk =   0.0246914
        k(   54) = (   0.4187500   0.2437500   0.6625000), wk =   0.0246914
        k(   55) = (   0.4125000   0.2625000   0.6750000), wk =   0.0246914
        k(   56) = (   0.4062500   0.2812500   0.6875000), wk =   0.0246914
        k(   57) = (   0.4000000   0.3000000   0.7000000), wk =   0.0246914
        k(   58) = (   0.3937500   0.3187500   0.7125000), wk =   0.0246914
        k(   59) = (   0.3875000   0.3375000   0.7250000), wk =   0.0246914
        k(   60) = (   0.3812500   0.3562500   0.7375000), wk =   0.0246914
        k(   61) = (   0.3750000   0.3750000   0.7500000), wk =   0.0246914
        k(   62) = (   0.3562500   0.3562500   0.7125000), wk =   0.0246914
        k(   63) = (   0.3375000   0.3375000   0.6750000), wk =   0.0246914
        k(   64) = (   0.3187500   0.3187500   0.6375000), wk =   0.0246914
        k(   65) = (   0.3000000   0.3000000   0.6000000), wk =   0.0246914
        k(   66) = (   0.2812500   0.2812500   0.5625000), wk =   0.0246914
        k(   67) = (   0.2625000   0.2625000   0.5250000), wk =   0.0246914
        k(   68) = (   0.2437500   0.2437500   0.4875000), wk =   0.0246914
        k(   69) = (   0.2250000   0.2250000   0.4500000), wk =   0.0246914
        k(   70) = (   0.2062500   0.2062500   0.4125000), wk =   0.0246914
        k(   71) = (   0.1875000   0.1875000   0.3750000), wk =   0.0246914
        k(   72) = (   0.1687500   0.1687500   0.3375000), wk =   0.0246914
        k(   73) = (   0.1500000   0.1500000   0.3000000), wk =   0.0246914
        k(   74) = (   0.1312500   0.1312500   0.2625000), wk =   0.0246914
        k(   75) = (   0.1125000   0.1125000   0.2250000), wk =   0.0246914
        k(   76) = (   0.0937500   0.0937500   0.1875000), wk =   0.0246914
        k(   77) = (   0.0750000   0.0750000   0.1500000), wk =   0.0246914
        k(   78) = (   0.0562500   0.0562500   0.1125000), wk =   0.0246914
        k(   79) = (   0.0375000   0.0375000   0.0750000), wk =   0.0246914
        k(   80) = (   0.0187500   0.0187500   0.0375000), wk =   0.0246914
        k(   81) = (   0.0000000   0.0000000   0.0000000), wk =   0.0246914

     Dense  grid:     9257 G-vectors     FFT dimensions: (  32,  32,  32)

     Dynamical RAM for                 wfc:       0.21 MB

     Dynamical RAM for     wfc (w. buffer):       0.21 MB

     Dynamical RAM for           str. fact:       0.14 MB

     Dynamical RAM for           local pot:       0.00 MB

     Dynamical RAM for          nlocal pot:       0.63 MB

     Dynamical RAM for                qrad:       1.02 MB

     Dynamical RAM for          rho,v,vnew:       1.17 MB

     Dynamical RAM for           G-vectors:       0.60 MB

     Dynamical RAM for          h,s,v(r/c):       0.03 MB

     Dynamical RAM for          <psi|beta>:       0.01 MB

     Dynamical RAM for                 psi:       0.42 MB

     Dynamical RAM for                hpsi:       0.42 MB

     Dynamical RAM for      wfcinit/wfcrot:       0.43 MB

     Estimated static dynamical RAM per process >       5.31 MB

     Estimated max dynamical RAM per process >       6.19 MB

     The potential is recalculated from file :
     ./out/si.save/charge-density

     Starting wfcs are    8 randomized atomic wfcs +    4 random wfcs

     Band Structure Calculation
     Davidson diagonalization with overlap

     Computing kpt #:     1  of    81
     total cpu time spent up to now is        0.4 secs

     Computing kpt #:     2  of    81
     total cpu time spent up to now is        0.6 secs

     Computing kpt #:     3  of    81
     total cpu time spent up to now is        0.8 secs

     Computing kpt #:     4  of    81
     total cpu time spent up to now is        0.9 secs

     Computing kpt #:     5  of    81
     total cpu time spent up to now is        1.1 secs

     Computing kpt #:     6  of    81
     total cpu time spent up to now is        1.3 secs

     Computing kpt #:     7  of    81
     total cpu time spent up to now is        1.4 secs

     Computing kpt #:     8  of    81
     total cpu time spent up to now is        1.6 secs

     Computing kpt #:     9  of    81
     total cpu time spent up to now is        1.7 secs

     Computing kpt #:    10  of    81
     total cpu time spent up to now is        1.9 secs

     Computing kpt #:    11  of    81
     total cpu time spent up to now is        2.0 secs

     Computing kpt #:    12  of    81
     total cpu time spent up to now is        2.2 secs

     Computing kpt #:    13  of    81
     total cpu time spent up to now is        2.3 secs

     Computing kpt #:    14  of    81
     total cpu time spent up to now is        2.5 secs

     Computing kpt #:    15  of    81
     total cpu time spent up to now is        2.6 secs

     Computing kpt #:    16  of    81
     total cpu time spent up to now is        2.7 secs

     Computing kpt #:    17  of    81
     total cpu time spent up to now is        2.9 secs

     Computing kpt #:    18  of    81
     total cpu time spent up to now is        3.0 secs

     Computing kpt #:    19  of    81
     total cpu time spent up to now is        3.2 secs

     Computing kpt #:    20  of    81
     total cpu time spent up to now is        3.4 secs

     Computing kpt #:    21  of    81
     total cpu time spent up to now is        3.5 secs

     Computing kpt #:    22  of    81
     total cpu time spent up to now is        3.7 secs

     Computing kpt #:    23  of    81
     total cpu time spent up to now is        3.8 secs

     Computing kpt #:    24  of    81
     total cpu time spent up to now is        4.0 secs

     Computing kpt #:    25  of    81
     total cpu time spent up to now is        4.1 secs

     Computing kpt #:    26  of    81
     total cpu time spent up to now is        4.3 secs

     Computing kpt #:    27  of    81
     total cpu time spent up to now is        4.4 secs

     Computing kpt #:    28  of    81
     total cpu time spent up to now is        4.6 secs

     Computing kpt #:    29  of    81
     total cpu time spent up to now is        4.7 secs

     Computing kpt #:    30  of    81
     total cpu time spent up to now is        4.9 secs

     Computing kpt #:    31  of    81
     total cpu time spent up to now is        5.1 secs

     Computing kpt #:    32  of    81
     total cpu time spent up to now is        5.2 secs

     Computing kpt #:    33  of    81
     total cpu time spent up to now is        5.4 secs

     Computing kpt #:    34  of    81
     total cpu time spent up to now is        5.6 secs

     Computing kpt #:    35  of    81
     total cpu time spent up to now is        5.8 secs

     Computing kpt #:    36  of    81
     total cpu time spent up to now is        6.0 secs

     Computing kpt #:    37  of    81
     total cpu time spent up to now is        6.2 secs

     Computing kpt #:    38  of    81
     total cpu time spent up to now is        6.4 secs

     Computing kpt #:    39  of    81
     total cpu time spent up to now is        6.6 secs

     Computing kpt #:    40  of    81
     total cpu time spent up to now is        6.8 secs

     Computing kpt #:    41  of    81
     total cpu time spent up to now is        7.0 secs

     Computing kpt #:    42  of    81
     total cpu time spent up to now is        7.2 secs

     Computing kpt #:    43  of    81
     total cpu time spent up to now is        7.4 secs

     Computing kpt #:    44  of    81
     total cpu time spent up to now is        7.6 secs

     Computing kpt #:    45  of    81
     total cpu time spent up to now is        7.8 secs

     Computing kpt #:    46  of    81
     total cpu time spent up to now is        8.0 secs

     Computing kpt #:    47  of    81
     total cpu time spent up to now is        8.2 secs

     Computing kpt #:    48  of    81
     total cpu time spent up to now is        8.4 secs

     Computing kpt #:    49  of    81
     total cpu time spent up to now is        8.6 secs

     Computing kpt #:    50  of    81
     total cpu time spent up to now is        8.7 secs

     Computing kpt #:    51  of    81
     total cpu time spent up to now is        8.9 secs

     Computing kpt #:    52  of    81
     total cpu time spent up to now is        9.1 secs

     Computing kpt #:    53  of    81
     total cpu time spent up to now is        9.2 secs

     Computing kpt #:    54  of    81
     total cpu time spent up to now is        9.4 secs

     Computing kpt #:    55  of    81
     total cpu time spent up to now is        9.6 secs

     Computing kpt #:    56  of    81
     total cpu time spent up to now is        9.8 secs

     Computing kpt #:    57  of    81
     total cpu time spent up to now is       10.0 secs

     Computing kpt #:    58  of    81
     total cpu time spent up to now is       10.2 secs

     Computing kpt #:    59  of    81
     total cpu time spent up to now is       10.4 secs

     Computing kpt #:    60  of    81
     total cpu time spent up to now is       10.6 secs

     Computing kpt #:    61  of    81
     total cpu time spent up to now is       10.8 secs

     Computing kpt #:    62  of    81
     total cpu time spent up to now is       11.1 secs

     Computing kpt #:    63  of    81
     total cpu time spent up to now is       11.3 secs

     Computing kpt #:    64  of    81
     total cpu time spent up to now is       11.4 secs

     Computing kpt #:    65  of    81
     total cpu time spent up to now is       11.6 secs

     Computing kpt #:    66  of    81
     total cpu time spent up to now is       11.7 secs

     Computing kpt #:    67  of    81
     total cpu time spent up to now is       11.9 secs

     Computing kpt #:    68  of    81
     total cpu time spent up to now is       12.1 secs

     Computing kpt #:    69  of    81
     total cpu time spent up to now is       12.2 secs

     Computing kpt #:    70  of    81
     total cpu time spent up to now is       12.3 secs

     Computing kpt #:    71  of    81
     total cpu time spent up to now is       12.5 secs

     Computing kpt #:    72  of    81
     total cpu time spent up to now is       12.6 secs

     Computing kpt #:    73  of    81
     total cpu time spent up to now is       12.8 secs

     Computing kpt #:    74  of    81
     total cpu time spent up to now is       12.9 secs

     Computing kpt #:    75  of    81
     total cpu time spent up to now is       13.1 secs

     Computing kpt #:    76  of    81
     total cpu time spent up to now is       13.2 secs

     Computing kpt #:    77  of    81
     total cpu time spent up to now is       13.4 secs

     Computing kpt #:    78  of    81
     total cpu time spent up to now is       13.5 secs

     Computing kpt #:    79  of    81
     total cpu time spent up to now is       13.7 secs

     Computing kpt #:    80  of    81
     total cpu time spent up to now is       13.9 secs

     Computing kpt #:    81  of    81
     total cpu time spent up to now is       14.0 secs

     ethr =  1.25E-10,  avg # of iterations = 42.5

     total cpu time spent up to now is       14.0 secs

     End of band structure calculation

          k =-0.5000 0.5000 0.5000 (  1158 PWs)   bands (ev):

    -3.4041  -0.7431   5.0292   5.0292   7.7583   9.5679   9.5679  13.9619
    16.7874  16.7874  17.5699  17.5699

          k =-0.4750 0.4750 0.4750 (  1164 PWs)   bands (ev):

    -3.4395  -0.6923   5.0337   5.0337   7.7635   9.5731   9.5731  13.9699
    16.5340  16.5340  17.4469  17.8419

          k =-0.4500 0.4500 0.4500 (  1164 PWs)   bands (ev):

    -3.5382  -0.5472   5.0472   5.0472   7.7789   9.5883   9.5883  13.9931
    16.0997  16.0997  17.1289  18.3318

          k =-0.4250 0.4250 0.4250 (  1155 PWs)   bands (ev):

    -3.6828  -0.3255   5.0696   5.0696   7.8046   9.6124   9.6124  14.0293
    15.6529  15.6529  16.7353  18.8702

          k =-0.4000 0.4000 0.4000 (  1161 PWs)   bands (ev):

    -3.8553  -0.0454   5.1010   5.1010   7.8404   9.6434   9.6434  14.0734
    15.2224  15.2224  16.3195  19.4255

          k =-0.3750 0.3750 0.3750 (  1155 PWs)   bands (ev):

    -4.0416   0.2790   5.1412   5.1412   7.8862   9.6783   9.6783  14.1141
    14.8184  14.8184  15.9118  19.9808

          k =-0.3500 0.3500 0.3500 (  1155 PWs)   bands (ev):

    -4.2321   0.6374   5.1902   5.1902   7.9416   9.7131   9.7131  14.1265
    14.4476  14.4476  15.5444  20.1050

          k =-0.3250 0.3250 0.3250 (  1149 PWs)   bands (ev):

    -4.4202   1.0230   5.2478   5.2478   8.0063   9.7424   9.7424  14.0594
    14.1167  14.1167  15.2706  19.6817

          k =-0.3000 0.3000 0.3000 (  1161 PWs)   bands (ev):

    -4.6019   1.4308   5.3138   5.3138   8.0797   9.7598   9.7598  13.8327
    13.8327  13.8564  15.1458  19.1574

          k =-0.2750 0.2750 0.2750 (  1164 PWs)   bands (ev):

    -4.7741   1.8571   5.3876   5.3876   8.1611   9.7581   9.7581  13.5302
    13.6030  13.6030  15.1533  18.6069

          k =-0.2500 0.2500 0.2500 (  1164 PWs)   bands (ev):

    -4.9348   2.2989   5.4687   5.4687   8.2494   9.7310   9.7310  13.1360
    13.4340  13.4340  15.2293  18.0716

          k =-0.2250 0.2250 0.2250 (  1164 PWs)   bands (ev):

    -5.0828   2.7533   5.5564   5.5564   8.3433   9.6743   9.6743  12.7096
    13.3294  13.3294  15.3220  17.5849

          k =-0.2000 0.2000 0.2000 (  1167 PWs)   bands (ev):

    -5.2170   3.2175   5.6494   5.6494   8.4408   9.5880   9.5880  12.2676
    13.2889  13.2889  15.3837  17.1876

          k =-0.1750 0.1750 0.1750 (  1167 PWs)   bands (ev):

    -5.3366   3.6879   5.7460   5.7460   8.5392   9.4763   9.4763  11.8183
    13.3069  13.3069  15.3571  16.9356

          k =-0.1500 0.1500 0.1500 (  1173 PWs)   bands (ev):

    -5.4411   4.1602   5.8440   5.8440   8.6350   9.3475   9.3475  11.3680
    13.3740  13.3740  15.2085  16.8623

          k =-0.1250 0.1250 0.1250 (  1173 PWs)   bands (ev):

    -5.5301   4.6281   5.9404   5.9404   8.7228   9.2115   9.2115  10.9245
    13.4775  13.4775  14.9773  16.9274

          k =-0.1000 0.1000 0.1000 (  1179 PWs)   bands (ev):

    -5.6033   5.0818   6.0311   6.0311   8.7953   9.0791   9.0791  10.5004
    13.6027  13.6027  14.7290  17.0620

          k =-0.0750 0.0750 0.0750 (  1185 PWs)   bands (ev):

    -5.6604   5.5055   6.1112   6.1112   8.8410   8.9612   8.9612  10.1181
    13.7328  13.7328  14.5073  17.2158

          k =-0.0500 0.0500 0.0500 (  1167 PWs)   bands (ev):

    -5.7014   5.8711   6.1747   6.1747   8.8460   8.8676   8.8676   9.8144
    13.8485  13.8485  14.3363  17.3545

          k =-0.0250 0.0250 0.0250 (  1157 PWs)   bands (ev):

    -5.7260   6.1326   6.2159   6.2159   8.8073   8.8073   8.8116   9.6296
    13.9295  13.9295  14.2289  17.4510

          k = 0.0000 0.0000 0.0000 (  1139 PWs)   bands (ev):

    -5.7342   6.2302   6.2302   6.2302   8.7865   8.7865   8.7865   9.5716
    13.9588  13.9588  14.1924  17.4858

          k =-0.0500 0.0000 0.0000 (  1167 PWs)   bands (ev):

    -5.7232   6.1554   6.1831   6.1831   8.7594   8.8470   8.8470   9.6446
    13.8696  13.9709  14.2410  17.5047

          k =-0.1000 0.0000 0.0000 (  1171 PWs)   bands (ev):

    -5.6904   5.9488   6.0540   6.0540   8.6814   9.0166   9.0166   9.8429
    13.6309  14.0072  14.3838  17.5617

          k =-0.1500 0.0000 0.0000 (  1171 PWs)   bands (ev):

    -5.6358   5.6485   5.8688   5.8688   8.5609   9.2687   9.2687  10.1165
    13.3078  14.0678  14.6119  17.6565

          k =-0.2000 0.0000 0.0000 (  1171 PWs)   bands (ev):

    -5.5594   5.2885   5.6523   5.6523   8.4089   9.5787   9.5787  10.4016
    12.9787  14.1525  14.9138  17.7887

          k =-0.2500 0.0000 0.0000 (  1163 PWs)   bands (ev):

    -5.4614   4.8923   5.4219   5.4219   8.2367   9.9285   9.9285  10.6103
    12.7425  14.2615  15.2775  17.9575

          k =-0.3000 0.0000 0.0000 (  1163 PWs)   bands (ev):

    -5.3418   4.4740   5.1886   5.1886   8.0540  10.3066  10.3066  10.6321
    12.7169  14.3946  15.6917  18.1616

          k =-0.3500 0.0000 0.0000 (  1162 PWs)   bands (ev):

    -5.2010   4.0420   4.9598   4.9598   7.8690  10.4386  10.7053  10.7053
    12.9353  14.5518  16.1466  18.3986

          k =-0.4000 0.0000 0.0000 (  1170 PWs)   bands (ev):

    -5.0390   3.6016   4.7398   4.7398   7.6880  10.1156  11.1196  11.1196
    13.3148  14.7330  16.6332  18.6640

          k =-0.4500 0.0000 0.0000 (  1162 PWs)   bands (ev):

    -4.8561   3.1560   4.5318   4.5318   7.5162   9.7432  11.5461  11.5461
    13.7771  14.9384  17.1427  18.9500

          k =-0.5000 0.0000 0.0000 (  1174 PWs)   bands (ev):

    -4.6527   2.7075   4.3379   4.3379   7.3572   9.3624  11.9824  11.9824
    14.2811  15.1677  17.6654  19.2414

          k =-0.5500 0.0000 0.0000 (  1158 PWs)   bands (ev):

    -4.4290   2.2580   4.1596   4.1596   7.2141   8.9929  12.4267  12.4267
    14.8068  15.4210  18.1899  19.5092

          k =-0.6000 0.0000 0.0000 (  1146 PWs)   bands (ev):

    -4.1855   1.8090   3.9980   3.9980   7.0894   8.6446  12.8778  12.8778
    15.3422  15.6981  18.7003  19.6989

          k =-0.6500 0.0000 0.0000 (  1150 PWs)   bands (ev):

    -3.9226   1.3619   3.8540   3.8540   6.9850   8.3230  13.3349  13.3349
    15.8797  15.9990  19.1744  19.7330

          k =-0.7000 0.0000 0.0000 (  1158 PWs)   bands (ev):

    -3.6409   0.9182   3.7281   3.7281   6.9026   8.0309  13.7974  13.7974
    16.3235  16.4136  19.5657  19.5657

          k =-0.7500 0.0000 0.0000 (  1150 PWs)   bands (ev):

    -3.3408   0.4794   3.6210   3.6210   6.8436   7.7701  14.2645  14.2645
    16.6717  16.9392  19.2355  19.2355

          k =-0.8000 0.0000 0.0000 (  1154 PWs)   bands (ev):

    -3.0230   0.0469   3.5328   3.5328   6.8092   7.5410  14.7350  14.7350
    17.0432  17.4522  18.8128  18.8128

          k =-0.8500 0.0000 0.0000 (  1154 PWs)   bands (ev):

    -2.6884  -0.3779   3.4640   3.4640   6.8006   7.3438  15.2060  15.2060
    17.4381  17.9482  18.3491  18.3491

          k =-0.9000 0.0000 0.0000 (  1154 PWs)   bands (ev):

    -2.3376  -0.7935   3.4147   3.4147   6.8187   7.1781  15.6692  15.6692
    17.8561  17.8790  17.8790  18.4216

          k =-0.9500 0.0000 0.0000 (  1162 PWs)   bands (ev):

    -1.9717  -1.1985   3.3851   3.3851   6.8647   7.0436  16.0934  16.0934
    17.4465  17.4465  18.2970  18.8655

          k =-1.0000 0.0000 0.0000 (  1162 PWs)   bands (ev):

    -1.5916  -1.5916   3.3752   3.3752   6.9393   6.9393  16.3195  16.3195
    17.2171  17.2171  18.7607  18.7607

          k =-0.9875 0.0375 0.0000 (  1160 PWs)   bands (ev):

    -1.6857  -1.4926   3.3567   3.3576   6.9524   6.9966  16.2286  16.2635
    17.1371  17.1742  18.7050  18.9433

          k =-0.9750 0.0750 0.0000 (  1154 PWs)   bands (ev):

    -1.7737  -1.3901   3.3021   3.3087   7.0346   7.1202  15.9175  16.1332
    16.9306  17.1602  18.6823  19.1506

          k =-0.9625 0.1125 0.0000 (  1147 PWs)   bands (ev):

    -1.8550  -1.2856   3.2161   3.2375   7.1804   7.3031  15.4444  15.9473
    16.6814  17.2176  18.6297  19.3137

          k =-0.9500 0.1500-0.0000 (  1146 PWs)   bands (ev):

    -1.9288  -1.1814   3.1064   3.1541   7.3815   7.5365  14.8966  15.7024
    16.4471  17.3062  18.5649  19.4571

          k =-0.9375 0.1875 0.0000 (  1154 PWs)   bands (ev):

    -1.9947  -1.0797   2.9809   3.0687   7.6292   7.8123  14.3182  15.4023
    16.2481  17.3960  18.5075  19.5955

          k =-0.9250 0.2250 0.0000 (  1154 PWs)   bands (ev):

    -2.0525  -0.9836   2.8471   2.9904   7.9157   8.1236  13.7290  15.0640
    16.0789  17.4630  18.4750  19.7337

          k =-0.9125 0.2625 0.0000 (  1158 PWs)   bands (ev):

    -2.1019  -0.8961   2.7107   2.9271   8.2342   8.4645  13.1394  14.7054
    15.9274  17.4833  18.4862  19.8731

          k =-0.9000 0.3000 0.0000 (  1162 PWs)   bands (ev):

    -2.1428  -0.8204   2.5768   2.8854   8.5796   8.8301  12.5558  14.3386
    15.7849  17.4415  18.5527  20.0140

          k =-0.8875 0.3375 0.0000 (  1157 PWs)   bands (ev):

    -2.1751  -0.7594   2.4487   2.8702   8.9474   9.2154  11.9843  13.9708
    15.6463  17.3390  18.6700  20.1563

          k =-0.8750 0.3750 0.0000 (  1153 PWs)   bands (ev):

    -2.1990  -0.7153   2.3294   2.8849   9.3340   9.6120  11.4338  13.6067
    15.5083  17.1869  18.8247  20.2998

          k =-0.8625 0.4125 0.0000 (  1155 PWs)   bands (ev):

    -2.2146  -0.6891   2.2210   2.9308   9.7358   9.9885  10.9364  13.2500
    15.3691  16.9963  19.0054  20.4445

          k =-0.8500 0.4500 0.0000 (  1149 PWs)   bands (ev):

    -2.2219  -0.6807   2.1253   3.0068  10.0928  10.1490  10.7460  12.9041
    15.2274  16.7758  19.2043  20.5909

          k =-0.8375 0.4875 0.0000 (  1151 PWs)   bands (ev):

    -2.2211  -0.6887   2.0435   3.1099   9.7080  10.5671  11.0814  12.5745
    15.0829  16.5324  19.4164  20.7396

          k =-0.8250 0.5250 0.0000 (  1155 PWs)   bands (ev):

    -2.2125  -0.7107   1.9768   3.2344   9.2481  10.9750  11.5319  12.2758
    14.9354  16.2722  19.6382  20.8918

          k =-0.8125 0.5625-0.0000 (  1153 PWs)   bands (ev):

    -2.1962  -0.7442   1.9259   3.3728   8.8032  11.3072  12.0121  12.0718
    14.7855  16.0007  19.8669  21.0492

          k =-0.8000 0.6000 0.0000 (  1153 PWs)   bands (ev):

    -2.1725  -0.7864   1.8915   3.5145   8.3936  11.3454  12.1792  12.5089
    14.6346  15.7228  20.0996  21.1813

          k =-0.7875 0.6375-0.0000 (  1151 PWs)   bands (ev):

    -2.1414  -0.8350   1.8741   3.6461   8.0343  11.1371  12.5475  13.0172
    14.4851  15.4428  20.3334  21.2583

          k =-0.7750 0.6750 0.0000 (  1150 PWs)   bands (ev):

    -2.1032  -0.8879   1.8741   3.7506   7.7421  10.8782  12.9744  13.5326
    14.3431  15.1654  20.5653  21.3506

          k =-0.7625 0.7125-0.0000 (  1146 PWs)   bands (ev):

    -2.0578  -0.9438   1.8916   3.8084   7.5361  10.6152  13.3928  14.0457
    14.2288  14.8997  20.7917  21.3636

          k =-0.7500 0.7500 0.0000 (  1144 PWs)   bands (ev):

    -2.0055  -1.0017   1.9266   3.8024   7.4330  10.3589  13.6902  14.2432
    14.4501  14.7508  20.9577  21.1134

          k =-0.7125 0.7125 0.0000 (  1142 PWs)   bands (ev):

    -2.1932  -0.8122   1.8323   3.9345   7.5859  11.1228  13.2340  13.7814
    14.0830  14.3569  21.0145  21.4874

          k =-0.6750 0.6750 0.0000 (  1141 PWs)   bands (ev):

    -2.4176  -0.5968   1.8109   4.0814   7.7558  11.8793  12.7945  13.3748
    13.7273  13.9873  20.6936  21.2844

          k =-0.6375 0.6375 0.0000 (  1141 PWs)   bands (ev):

    -2.6705  -0.3556   1.8572   4.2412   7.9403  12.3737  12.4216  13.2243
    13.3883  13.6456  20.2816  20.8620

          k =-0.6000 0.6000 0.0000 (  1145 PWs)   bands (ev):

    -2.9422  -0.0889   1.9631   4.4120   8.1361  11.9734  12.2850  13.0706
    13.3353  13.7863  19.8706  20.4696

          k =-0.5625 0.5625 0.0000 (  1151 PWs)   bands (ev):

    -3.2232   0.2031   2.1201   4.5912   8.3390  11.5944  11.9442  12.7792
    13.0598  14.5724  19.4763  20.1203

          k =-0.5250 0.5250 0.0000 (  1155 PWs)   bands (ev):

    -3.5056   0.5199   2.3207   4.7757   8.5430  11.2377  11.5927  12.5196
    12.8227  15.3643  19.1003  19.8358

          k =-0.4875 0.4875 0.0000 (  1147 PWs)   bands (ev):

    -3.7830   0.8612   2.5583   4.9623   8.7403  10.9040  11.2546  12.2979
    12.6275  16.0875  18.7199  19.1397

          k =-0.4500 0.4500 0.0000 (  1151 PWs)   bands (ev):

    -4.0506   1.2265   2.8275   5.1469   8.9210  10.5936  10.9355  12.1210
    12.4783  16.6422  18.1130  18.5479

          k =-0.4125 0.4125 0.0000 (  1155 PWs)   bands (ev):

    -4.3047   1.6151   3.1234   5.3254   9.0736  10.3071  10.6371  11.9950
    12.3786  16.9203  17.2891  18.2301

          k =-0.3750 0.3750 0.0000 (  1155 PWs)   bands (ev):

    -4.5426   2.0262   3.4415   5.4936   9.1874  10.0447  10.3602  11.9215
    12.3320  16.4714  16.9221  17.9747

          k =-0.3375 0.3375 0.0000 (  1147 PWs)   bands (ev):

    -4.7620   2.4588   3.7772   5.6477   9.2564   9.8067  10.1045  11.8910
    12.3411  15.6982  16.7436  17.7604

          k =-0.3000 0.3000 0.0000 (  1157 PWs)   bands (ev):

    -4.9614   2.9112   4.1256   5.7844   9.2816   9.5933   9.8697  11.8741
    12.4072  14.9987  16.4614  17.5859

          k =-0.2625 0.2625 0.0000 (  1159 PWs)   bands (ev):

    -5.1396   3.3816   4.4808   5.9018   9.2711   9.4047   9.6552  11.8133
    12.5294  14.4198  16.1166  17.4532

          k =-0.2250 0.2250 0.0000 (  1161 PWs)   bands (ev):

    -5.2955   3.8665   4.8357   5.9990   9.2357   9.2409   9.4602  11.6305
    12.7043  14.0243  15.7365  17.3645

          k =-0.1875 0.1875 0.0000 (  1165 PWs)   bands (ev):

    -5.4286   4.3611   5.1812   6.0766   9.1022   9.1848   9.2842  11.2858
    12.9249  13.8384  15.3480  17.3213

          k =-0.1500 0.1500 0.0000 (  1169 PWs)   bands (ev):

    -5.5381   4.8567   5.5056   6.1360   8.9886   9.1239   9.1276  10.8279
    13.1791  13.8061  14.9791  17.3218

          k =-0.1125 0.1125 0.0000 (  1177 PWs)   bands (ev):

    -5.6236   5.3375   5.7931   6.1791   8.9002   8.9924   9.0520  10.3456
    13.4475  13.8456  14.6570  17.3583

          k =-0.0750 0.0750 0.0000 (  1179 PWs)   bands (ev):

    -5.6850   5.7726   6.0243   6.2082   8.8370   8.8842   8.9594   9.9276
    13.6991  13.9012  14.4064  17.4144

          k =-0.0375 0.0375 0.0000 (  1173 PWs)   bands (ev):

    -5.7219   6.1015   6.1767   6.2248   8.7991   8.8121   8.8470   9.6582
    13.8873  13.9434  14.2470  17.4652

          k = 0.0000 0.0000 0.0000 (  1139 PWs)   bands (ev):

    -5.7342   6.2302   6.2302   6.2302   8.7865   8.7865   8.7865   9.5716
    13.9588  13.9588  14.1924  17.4858

     Writing all to output data dir ./out/si.save/
 
     init_run     :      0.04s CPU      0.05s WALL (       1 calls)
     electrons    :     13.65s CPU     13.84s WALL (       1 calls)

     Called by init_run:
     wfcinit      :      0.00s CPU      0.00s WALL (       1 calls)
     wfcinit:atom :      0.01s CPU      0.01s WALL (      81 calls)
     wfcinit:wfcr :      0.45s CPU      0.51s WALL (      81 calls)
     potinit      :      0.01s CPU      0.01s WALL (       1 calls)
     hinit0       :      0.02s CPU      0.02s WALL (       1 calls)

     Called by electrons:
     c_bands      :     13.65s CPU     13.83s WALL (       1 calls)
     v_of_rho     :      0.01s CPU      0.01s WALL (       1 calls)
     v_h          :      0.00s CPU      0.00s WALL (       1 calls)
     v_xc         :      0.01s CPU      0.01s WALL (       1 calls)

     Called by c_bands:
     init_us_2    :      0.02s CPU      0.02s WALL (      81 calls)
     init_us_2:cp :      0.02s CPU      0.02s WALL (      81 calls)
     cegterg      :     12.96s CPU     13.03s WALL (     210 calls)

     Called by sum_band:

     Called by *egterg:
     cdiaghg      :      0.59s CPU      0.61s WALL (    3520 calls)
     cegterg:over :      0.40s CPU      0.40s WALL (    3439 calls)
     cegterg:upda :      0.25s CPU      0.25s WALL (    3439 calls)
     cegterg:last :      0.36s CPU      0.37s WALL (    2038 calls)
     h_psi        :     11.63s CPU     11.72s WALL (    3730 calls)
     g_psi        :      0.06s CPU      0.06s WALL (    3439 calls)

     Called by h_psi:
     h_psi:calbec :      0.38s CPU      0.38s WALL (    3730 calls)
     vloc_psi     :     10.88s CPU     10.97s WALL (    3730 calls)
     add_vuspsi   :      0.31s CPU      0.31s WALL (    3730 calls)

     General routines
     calbec       :      0.37s CPU      0.38s WALL (    3730 calls)
     fft          :      0.00s CPU      0.00s WALL (      11 calls)
     fftw         :      9.76s CPU      9.84s WALL (   50082 calls)
     davcio       :      0.03s CPU      0.04s WALL (     162 calls)
 
     Parallel routines
 
     PWSCF        :     13.86s CPU     14.11s WALL

 
   This run was terminated on:  12: 2: 3   1Nov2022            

=------------------------------------------------------------------------------=
   JOB DONE.
=------------------------------------------------------------------------------=
