
     Program PWSCF v.7.1 starts on 31Oct2022 at 14:10:14 

     This program is part of the open-source Quantum ESPRESSO suite
     for quantum simulation of materials; please cite
         "P. Giannozzi et al., J. Phys.:Condens. Matter 21 395502 (2009);
         "P. Giannozzi et al., J. Phys.:Condens. Matter 29 465901 (2017);
         "P. Giannozzi et al., J. Chem. Phys. 152 154105 (2020);
          URL http://www.quantum-espresso.org", 
     in publications or presentations arising from this work. More details at
     http://www.quantum-espresso.org/quote

     Parallel version (MPI), running on     1 processors

     MPI processes distributed on     1 nodes
     318 MiB available memory on the printing compute node when the environment starts
 
     Reading input from Si.scf.in

     Current dimensions of program PWSCF are:
     Max number of different atomic species (ntypx) = 10
     Max number of k-points (npk) =  40000
     Max angular momentum in pseudopotentials (lmaxx) =  4
 
     Subspace diagonalization in iterative solution of the eigenvalue problem:
     a serial algorithm will be used

 
     G-vector sticks info
     --------------------
     sticks:   dense  smooth     PW     G-vecs:    dense   smooth      PW
     Sum         583     583    187                 9257     9257    1639
 
     Using Slab Decomposition
 


     bravais-lattice index     =            2
     lattice parameter (alat)  =      10.2622  a.u.
     unit-cell volume          =     270.1851 (a.u.)^3
     number of atoms/cell      =            2
     number of atomic types    =            1
     number of electrons       =         8.00
     number of Kohn-Sham states=            5
     kinetic-energy cutoff     =      40.0000  Ry
     charge density cutoff     =     160.0000  Ry
     scf convergence threshold =      1.6E-08
     mixing beta               =       0.7000
     number of iterations used =            8  plain     mixing
     Exchange-correlation= PBE
                           (   1   4   3   4   0   0   0)

     celldm(1)=  10.262200  celldm(2)=   0.000000  celldm(3)=   0.000000
     celldm(4)=   0.000000  celldm(5)=   0.000000  celldm(6)=   0.000000

     crystal axes: (cart. coord. in units of alat)
               a(1) = (  -0.500000   0.000000   0.500000 )  
               a(2) = (   0.000000   0.500000   0.500000 )  
               a(3) = (  -0.500000   0.500000   0.000000 )  

     reciprocal axes: (cart. coord. in units 2 pi/alat)
               b(1) = ( -1.000000 -1.000000  1.000000 )  
               b(2) = (  1.000000  1.000000  1.000000 )  
               b(3) = ( -1.000000  1.000000 -1.000000 )  


     PseudoPot. # 1 for Si read from file:
     ../../files/pseudo/Si_ONCV_PBE-1.2.upf
     MD5 check sum: 7f029a58b69e3aa87b46a36c608bf45e
     Pseudo is Norm-conserving, Zval =  4.0
     Generated using ONCVPSP code by D. R. Hamann
     Using radial grid of  602 points,  4 beta functions with: 
                l(1) =   0
                l(2) =   0
                l(3) =   1
                l(4) =   1

     atomic species   valence    mass     pseudopotential
        Si             4.00    28.08500     Si( 1.00)

     48 Sym. Ops., with inversion, found (24 have fractional translation)


                                    s                        frac. trans.

      isym =  1     identity                                     

 cryst.   s( 1) = (     1          0          0      )
                  (     0          1          0      )
                  (     0          0          1      )

 cart.    s( 1) = (  1.0000000  0.0000000  0.0000000 )
                  (  0.0000000  1.0000000  0.0000000 )
                  (  0.0000000  0.0000000  1.0000000 )


      isym =  2     180 deg rotation - cart. axis [0,0,1]        

 cryst.   s( 2) = (     0          1         -1      )
                  (     1          0         -1      )
                  (     0          0         -1      )

 cart.    s( 2) = ( -1.0000000  0.0000000  0.0000000 )
                  (  0.0000000 -1.0000000  0.0000000 )
                  (  0.0000000  0.0000000  1.0000000 )


      isym =  3     180 deg rotation - cart. axis [0,1,0]        

 cryst.   s( 3) = (    -1          0          0      )
                  (    -1          0          1      )
                  (    -1          1          0      )

 cart.    s( 3) = ( -1.0000000  0.0000000  0.0000000 )
                  (  0.0000000  1.0000000  0.0000000 )
                  (  0.0000000  0.0000000 -1.0000000 )


      isym =  4     180 deg rotation - cart. axis [1,0,0]        

 cryst.   s( 4) = (     0         -1          1      )
                  (     0         -1          0      )
                  (     1         -1          0      )

 cart.    s( 4) = (  1.0000000  0.0000000  0.0000000 )
                  (  0.0000000 -1.0000000  0.0000000 )
                  (  0.0000000  0.0000000 -1.0000000 )


      isym =  5     180 deg rotation - cart. axis [1,1,0]        

 cryst.   s( 5) = (     0         -1          0      )    f =( -0.2500000 )
                  (    -1          0          0      )       ( -0.2500000 )
                  (     0          0         -1      )       ( -0.2500000 )

 cart.    s( 5) = (  0.0000000  1.0000000  0.0000000 )    f =(  0.2500000 )
                  (  1.0000000  0.0000000  0.0000000 )       ( -0.2500000 )
                  (  0.0000000  0.0000000 -1.0000000 )       ( -0.2500000 )


      isym =  6     180 deg rotation - cart. axis [1,-1,0]       

 cryst.   s( 6) = (    -1          0          1      )    f =( -0.2500000 )
                  (     0         -1          1      )       ( -0.2500000 )
                  (     0          0          1      )       ( -0.2500000 )

 cart.    s( 6) = (  0.0000000 -1.0000000  0.0000000 )    f =(  0.2500000 )
                  ( -1.0000000  0.0000000  0.0000000 )       ( -0.2500000 )
                  (  0.0000000  0.0000000 -1.0000000 )       ( -0.2500000 )


      isym =  7      90 deg rotation - cart. axis [0,0,-1]       

 cryst.   s( 7) = (     0          1          0      )    f =( -0.2500000 )
                  (     0          1         -1      )       ( -0.2500000 )
                  (    -1          1          0      )       ( -0.2500000 )

 cart.    s( 7) = (  0.0000000  1.0000000  0.0000000 )    f =(  0.2500000 )
                  ( -1.0000000  0.0000000  0.0000000 )       ( -0.2500000 )
                  (  0.0000000  0.0000000  1.0000000 )       ( -0.2500000 )


      isym =  8      90 deg rotation - cart. axis [0,0,1]        

 cryst.   s( 8) = (     1          0         -1      )    f =( -0.2500000 )
                  (     1          0          0      )       ( -0.2500000 )
                  (     1         -1          0      )       ( -0.2500000 )

 cart.    s( 8) = (  0.0000000 -1.0000000  0.0000000 )    f =(  0.2500000 )
                  (  1.0000000  0.0000000  0.0000000 )       ( -0.2500000 )
                  (  0.0000000  0.0000000  1.0000000 )       ( -0.2500000 )


      isym =  9     180 deg rotation - cart. axis [1,0,1]        

 cryst.   s( 9) = (    -1          0          0      )    f =( -0.2500000 )
                  (     0          0         -1      )       ( -0.2500000 )
                  (     0         -1          0      )       ( -0.2500000 )

 cart.    s( 9) = (  0.0000000  0.0000000  1.0000000 )    f =(  0.2500000 )
                  (  0.0000000 -1.0000000  0.0000000 )       ( -0.2500000 )
                  (  1.0000000  0.0000000  0.0000000 )       ( -0.2500000 )


      isym = 10     180 deg rotation - cart. axis [-1,0,1]       

 cryst.   s(10) = (     1          0          0      )    f =( -0.2500000 )
                  (     1         -1          0      )       ( -0.2500000 )
                  (     1          0         -1      )       ( -0.2500000 )

 cart.    s(10) = (  0.0000000  0.0000000 -1.0000000 )    f =(  0.2500000 )
                  (  0.0000000 -1.0000000  0.0000000 )       ( -0.2500000 )
                  ( -1.0000000  0.0000000  0.0000000 )       ( -0.2500000 )


      isym = 11      90 deg rotation - cart. axis [0,1,0]        

 cryst.   s(11) = (     0          1         -1      )    f =( -0.2500000 )
                  (    -1          1          0      )       ( -0.2500000 )
                  (     0          1          0      )       ( -0.2500000 )

 cart.    s(11) = (  0.0000000  0.0000000  1.0000000 )    f =(  0.2500000 )
                  (  0.0000000  1.0000000  0.0000000 )       ( -0.2500000 )
                  ( -1.0000000  0.0000000  0.0000000 )       ( -0.2500000 )


      isym = 12      90 deg rotation - cart. axis [0,-1,0]       

 cryst.   s(12) = (     0         -1          1      )    f =( -0.2500000 )
                  (     0          0          1      )       ( -0.2500000 )
                  (    -1          0          1      )       ( -0.2500000 )

 cart.    s(12) = (  0.0000000  0.0000000 -1.0000000 )    f =(  0.2500000 )
                  (  0.0000000  1.0000000  0.0000000 )       ( -0.2500000 )
                  (  1.0000000  0.0000000  0.0000000 )       ( -0.2500000 )


      isym = 13     180 deg rotation - cart. axis [0,1,1]        

 cryst.   s(13) = (    -1          1          0      )    f =( -0.2500000 )
                  (     0          1          0      )       ( -0.2500000 )
                  (     0          1         -1      )       ( -0.2500000 )

 cart.    s(13) = ( -1.0000000  0.0000000  0.0000000 )    f =(  0.2500000 )
                  (  0.0000000  0.0000000  1.0000000 )       ( -0.2500000 )
                  (  0.0000000  1.0000000  0.0000000 )       ( -0.2500000 )


      isym = 14     180 deg rotation - cart. axis [0,1,-1]       

 cryst.   s(14) = (     0          0         -1      )    f =( -0.2500000 )
                  (     0         -1          0      )       ( -0.2500000 )
                  (    -1          0          0      )       ( -0.2500000 )

 cart.    s(14) = ( -1.0000000  0.0000000  0.0000000 )    f =(  0.2500000 )
                  (  0.0000000  0.0000000 -1.0000000 )       ( -0.2500000 )
                  (  0.0000000 -1.0000000  0.0000000 )       ( -0.2500000 )


      isym = 15      90 deg rotation - cart. axis [-1,0,0]       

 cryst.   s(15) = (     0          0          1      )    f =( -0.2500000 )
                  (    -1          0          1      )       ( -0.2500000 )
                  (     0         -1          1      )       ( -0.2500000 )

 cart.    s(15) = (  1.0000000  0.0000000  0.0000000 )    f =(  0.2500000 )
                  (  0.0000000  0.0000000  1.0000000 )       ( -0.2500000 )
                  (  0.0000000 -1.0000000  0.0000000 )       ( -0.2500000 )


      isym = 16      90 deg rotation - cart. axis [1,0,0]        

 cryst.   s(16) = (     1         -1          0      )    f =( -0.2500000 )
                  (     1          0         -1      )       ( -0.2500000 )
                  (     1          0          0      )       ( -0.2500000 )

 cart.    s(16) = (  1.0000000  0.0000000  0.0000000 )    f =(  0.2500000 )
                  (  0.0000000  0.0000000 -1.0000000 )       ( -0.2500000 )
                  (  0.0000000  1.0000000  0.0000000 )       ( -0.2500000 )


      isym = 17     120 deg rotation - cart. axis [-1,-1,-1]     

 cryst.   s(17) = (    -1          0          1      )
                  (    -1          1          0      )
                  (    -1          0          0      )

 cart.    s(17) = (  0.0000000  1.0000000  0.0000000 )
                  (  0.0000000  0.0000000  1.0000000 )
                  (  1.0000000  0.0000000  0.0000000 )


      isym = 18     120 deg rotation - cart. axis [-1,1,1]       

 cryst.   s(18) = (     0          1          0      )
                  (     0          0          1      )
                  (     1          0          0      )

 cart.    s(18) = (  0.0000000 -1.0000000  0.0000000 )
                  (  0.0000000  0.0000000  1.0000000 )
                  ( -1.0000000  0.0000000  0.0000000 )


      isym = 19     120 deg rotation - cart. axis [1,1,-1]       

 cryst.   s(19) = (     1          0         -1      )
                  (     0          0         -1      )
                  (     0          1         -1      )

 cart.    s(19) = (  0.0000000  1.0000000  0.0000000 )
                  (  0.0000000  0.0000000 -1.0000000 )
                  ( -1.0000000  0.0000000  0.0000000 )


      isym = 20     120 deg rotation - cart. axis [1,-1,1]       

 cryst.   s(20) = (     0         -1          0      )
                  (     1         -1          0      )
                  (     0         -1          1      )

 cart.    s(20) = (  0.0000000 -1.0000000  0.0000000 )
                  (  0.0000000  0.0000000 -1.0000000 )
                  (  1.0000000  0.0000000  0.0000000 )


      isym = 21     120 deg rotation - cart. axis [1,1,1]        

 cryst.   s(21) = (     0          0         -1      )
                  (     0          1         -1      )
                  (     1          0         -1      )

 cart.    s(21) = (  0.0000000  0.0000000  1.0000000 )
                  (  1.0000000  0.0000000  0.0000000 )
                  (  0.0000000  1.0000000  0.0000000 )


      isym = 22     120 deg rotation - cart. axis [-1,1,-1]      

 cryst.   s(22) = (    -1          1          0      )
                  (    -1          0          0      )
                  (    -1          0          1      )

 cart.    s(22) = (  0.0000000  0.0000000  1.0000000 )
                  ( -1.0000000  0.0000000  0.0000000 )
                  (  0.0000000 -1.0000000  0.0000000 )


      isym = 23     120 deg rotation - cart. axis [1,-1,-1]      

 cryst.   s(23) = (     0          0          1      )
                  (     1          0          0      )
                  (     0          1          0      )

 cart.    s(23) = (  0.0000000  0.0000000 -1.0000000 )
                  ( -1.0000000  0.0000000  0.0000000 )
                  (  0.0000000  1.0000000  0.0000000 )


      isym = 24     120 deg rotation - cart. axis [-1,-1,1]      

 cryst.   s(24) = (     1         -1          0      )
                  (     0         -1          1      )
                  (     0         -1          0      )

 cart.    s(24) = (  0.0000000  0.0000000 -1.0000000 )
                  (  1.0000000  0.0000000  0.0000000 )
                  (  0.0000000 -1.0000000  0.0000000 )


      isym = 25     inversion                                    

 cryst.   s(25) = (    -1          0          0      )    f =( -0.2500000 )
                  (     0         -1          0      )       ( -0.2500000 )
                  (     0          0         -1      )       ( -0.2500000 )

 cart.    s(25) = ( -1.0000000  0.0000000  0.0000000 )    f =(  0.2500000 )
                  (  0.0000000 -1.0000000  0.0000000 )       ( -0.2500000 )
                  (  0.0000000  0.0000000 -1.0000000 )       ( -0.2500000 )


      isym = 26     inv. 180 deg rotation - cart. axis [0,0,1]   

 cryst.   s(26) = (     0         -1          1      )    f =( -0.2500000 )
                  (    -1          0          1      )       ( -0.2500000 )
                  (     0          0          1      )       ( -0.2500000 )

 cart.    s(26) = (  1.0000000  0.0000000  0.0000000 )    f =(  0.2500000 )
                  (  0.0000000  1.0000000  0.0000000 )       ( -0.2500000 )
                  (  0.0000000  0.0000000 -1.0000000 )       ( -0.2500000 )


      isym = 27     inv. 180 deg rotation - cart. axis [0,1,0]   

 cryst.   s(27) = (     1          0          0      )    f =( -0.2500000 )
                  (     1          0         -1      )       ( -0.2500000 )
                  (     1         -1          0      )       ( -0.2500000 )

 cart.    s(27) = (  1.0000000  0.0000000  0.0000000 )    f =(  0.2500000 )
                  (  0.0000000 -1.0000000  0.0000000 )       ( -0.2500000 )
                  (  0.0000000  0.0000000  1.0000000 )       ( -0.2500000 )


      isym = 28     inv. 180 deg rotation - cart. axis [1,0,0]   

 cryst.   s(28) = (     0          1         -1      )    f =( -0.2500000 )
                  (     0          1          0      )       ( -0.2500000 )
                  (    -1          1          0      )       ( -0.2500000 )

 cart.    s(28) = ( -1.0000000  0.0000000  0.0000000 )    f =(  0.2500000 )
                  (  0.0000000  1.0000000  0.0000000 )       ( -0.2500000 )
                  (  0.0000000  0.0000000  1.0000000 )       ( -0.2500000 )


      isym = 29     inv. 180 deg rotation - cart. axis [1,1,0]   

 cryst.   s(29) = (     0          1          0      )
                  (     1          0          0      )
                  (     0          0          1      )

 cart.    s(29) = (  0.0000000 -1.0000000  0.0000000 )
                  ( -1.0000000  0.0000000  0.0000000 )
                  (  0.0000000  0.0000000  1.0000000 )


      isym = 30     inv. 180 deg rotation - cart. axis [1,-1,0]  

 cryst.   s(30) = (     1          0         -1      )
                  (     0          1         -1      )
                  (     0          0         -1      )

 cart.    s(30) = (  0.0000000  1.0000000  0.0000000 )
                  (  1.0000000  0.0000000  0.0000000 )
                  (  0.0000000  0.0000000  1.0000000 )


      isym = 31     inv.  90 deg rotation - cart. axis [0,0,-1]  

 cryst.   s(31) = (     0         -1          0      )
                  (     0         -1          1      )
                  (     1         -1          0      )

 cart.    s(31) = (  0.0000000 -1.0000000  0.0000000 )
                  (  1.0000000  0.0000000  0.0000000 )
                  (  0.0000000  0.0000000 -1.0000000 )


      isym = 32     inv.  90 deg rotation - cart. axis [0,0,1]   

 cryst.   s(32) = (    -1          0          1      )
                  (    -1          0          0      )
                  (    -1          1          0      )

 cart.    s(32) = (  0.0000000  1.0000000  0.0000000 )
                  ( -1.0000000  0.0000000  0.0000000 )
                  (  0.0000000  0.0000000 -1.0000000 )


      isym = 33     inv. 180 deg rotation - cart. axis [1,0,1]   

 cryst.   s(33) = (     1          0          0      )
                  (     0          0          1      )
                  (     0          1          0      )

 cart.    s(33) = (  0.0000000  0.0000000 -1.0000000 )
                  (  0.0000000  1.0000000  0.0000000 )
                  ( -1.0000000  0.0000000  0.0000000 )


      isym = 34     inv. 180 deg rotation - cart. axis [-1,0,1]  

 cryst.   s(34) = (    -1          0          0      )
                  (    -1          1          0      )
                  (    -1          0          1      )

 cart.    s(34) = (  0.0000000  0.0000000  1.0000000 )
                  (  0.0000000  1.0000000  0.0000000 )
                  (  1.0000000  0.0000000  0.0000000 )


      isym = 35     inv.  90 deg rotation - cart. axis [0,1,0]   

 cryst.   s(35) = (     0         -1          1      )
                  (     1         -1          0      )
                  (     0         -1          0      )

 cart.    s(35) = (  0.0000000  0.0000000 -1.0000000 )
                  (  0.0000000 -1.0000000  0.0000000 )
                  (  1.0000000  0.0000000  0.0000000 )


      isym = 36     inv.  90 deg rotation - cart. axis [0,-1,0]  

 cryst.   s(36) = (     0          1         -1      )
                  (     0          0         -1      )
                  (     1          0         -1      )

 cart.    s(36) = (  0.0000000  0.0000000  1.0000000 )
                  (  0.0000000 -1.0000000  0.0000000 )
                  ( -1.0000000  0.0000000  0.0000000 )


      isym = 37     inv. 180 deg rotation - cart. axis [0,1,1]   

 cryst.   s(37) = (     1         -1          0      )
                  (     0         -1          0      )
                  (     0         -1          1      )

 cart.    s(37) = (  1.0000000  0.0000000  0.0000000 )
                  (  0.0000000  0.0000000 -1.0000000 )
                  (  0.0000000 -1.0000000  0.0000000 )


      isym = 38     inv. 180 deg rotation - cart. axis [0,1,-1]  

 cryst.   s(38) = (     0          0          1      )
                  (     0          1          0      )
                  (     1          0          0      )

 cart.    s(38) = (  1.0000000  0.0000000  0.0000000 )
                  (  0.0000000  0.0000000  1.0000000 )
                  (  0.0000000  1.0000000  0.0000000 )


      isym = 39     inv.  90 deg rotation - cart. axis [-1,0,0]  

 cryst.   s(39) = (     0          0         -1      )
                  (     1          0         -1      )
                  (     0          1         -1      )

 cart.    s(39) = ( -1.0000000  0.0000000  0.0000000 )
                  (  0.0000000  0.0000000 -1.0000000 )
                  (  0.0000000  1.0000000  0.0000000 )


      isym = 40     inv.  90 deg rotation - cart. axis [1,0,0]   

 cryst.   s(40) = (    -1          1          0      )
                  (    -1          0          1      )
                  (    -1          0          0      )

 cart.    s(40) = ( -1.0000000  0.0000000  0.0000000 )
                  (  0.0000000  0.0000000  1.0000000 )
                  (  0.0000000 -1.0000000  0.0000000 )


      isym = 41     inv. 120 deg rotation - cart. axis [-1,-1,-1]

 cryst.   s(41) = (     1          0         -1      )    f =( -0.2500000 )
                  (     1         -1          0      )       ( -0.2500000 )
                  (     1          0          0      )       ( -0.2500000 )

 cart.    s(41) = (  0.0000000 -1.0000000  0.0000000 )    f =(  0.2500000 )
                  (  0.0000000  0.0000000 -1.0000000 )       ( -0.2500000 )
                  ( -1.0000000  0.0000000  0.0000000 )       ( -0.2500000 )


      isym = 42     inv. 120 deg rotation - cart. axis [-1,1,1]  

 cryst.   s(42) = (     0         -1          0      )    f =( -0.2500000 )
                  (     0          0         -1      )       ( -0.2500000 )
                  (    -1          0          0      )       ( -0.2500000 )

 cart.    s(42) = (  0.0000000  1.0000000  0.0000000 )    f =(  0.2500000 )
                  (  0.0000000  0.0000000 -1.0000000 )       ( -0.2500000 )
                  (  1.0000000  0.0000000  0.0000000 )       ( -0.2500000 )


      isym = 43     inv. 120 deg rotation - cart. axis [1,1,-1]  

 cryst.   s(43) = (    -1          0          1      )    f =( -0.2500000 )
                  (     0          0          1      )       ( -0.2500000 )
                  (     0         -1          1      )       ( -0.2500000 )

 cart.    s(43) = (  0.0000000 -1.0000000  0.0000000 )    f =(  0.2500000 )
                  (  0.0000000  0.0000000  1.0000000 )       ( -0.2500000 )
                  (  1.0000000  0.0000000  0.0000000 )       ( -0.2500000 )


      isym = 44     inv. 120 deg rotation - cart. axis [1,-1,1]  

 cryst.   s(44) = (     0          1          0      )    f =( -0.2500000 )
                  (    -1          1          0      )       ( -0.2500000 )
                  (     0          1         -1      )       ( -0.2500000 )

 cart.    s(44) = (  0.0000000  1.0000000  0.0000000 )    f =(  0.2500000 )
                  (  0.0000000  0.0000000  1.0000000 )       ( -0.2500000 )
                  ( -1.0000000  0.0000000  0.0000000 )       ( -0.2500000 )


      isym = 45     inv. 120 deg rotation - cart. axis [1,1,1]   

 cryst.   s(45) = (     0          0          1      )    f =( -0.2500000 )
                  (     0         -1          1      )       ( -0.2500000 )
                  (    -1          0          1      )       ( -0.2500000 )

 cart.    s(45) = (  0.0000000  0.0000000 -1.0000000 )    f =(  0.2500000 )
                  ( -1.0000000  0.0000000  0.0000000 )       ( -0.2500000 )
                  (  0.0000000 -1.0000000  0.0000000 )       ( -0.2500000 )


      isym = 46     inv. 120 deg rotation - cart. axis [-1,1,-1] 

 cryst.   s(46) = (     1         -1          0      )    f =( -0.2500000 )
                  (     1          0          0      )       ( -0.2500000 )
                  (     1          0         -1      )       ( -0.2500000 )

 cart.    s(46) = (  0.0000000  0.0000000 -1.0000000 )    f =(  0.2500000 )
                  (  1.0000000  0.0000000  0.0000000 )       ( -0.2500000 )
                  (  0.0000000  1.0000000  0.0000000 )       ( -0.2500000 )


      isym = 47     inv. 120 deg rotation - cart. axis [1,-1,-1] 

 cryst.   s(47) = (     0          0         -1      )    f =( -0.2500000 )
                  (    -1          0          0      )       ( -0.2500000 )
                  (     0         -1          0      )       ( -0.2500000 )

 cart.    s(47) = (  0.0000000  0.0000000  1.0000000 )    f =(  0.2500000 )
                  (  1.0000000  0.0000000  0.0000000 )       ( -0.2500000 )
                  (  0.0000000 -1.0000000  0.0000000 )       ( -0.2500000 )


      isym = 48     inv. 120 deg rotation - cart. axis [-1,-1,1] 

 cryst.   s(48) = (    -1          1          0      )    f =( -0.2500000 )
                  (     0          1         -1      )       ( -0.2500000 )
                  (     0          1          0      )       ( -0.2500000 )

 cart.    s(48) = (  0.0000000  0.0000000  1.0000000 )    f =(  0.2500000 )
                  ( -1.0000000  0.0000000  0.0000000 )       ( -0.2500000 )
                  (  0.0000000  1.0000000  0.0000000 )       ( -0.2500000 )


     point group O_h (m-3m) 
     there are 10 classes
     the character table:

       E     8C3   3C2   6C4   6C2'  i     8S6   3s_h  6S4   6s_d 
A_1g   1.00  1.00  1.00  1.00  1.00  1.00  1.00  1.00  1.00  1.00
A_2g   1.00  1.00  1.00 -1.00 -1.00  1.00  1.00  1.00 -1.00 -1.00
E_g    2.00 -1.00  2.00  0.00  0.00  2.00 -1.00  2.00  0.00  0.00
T_1g   3.00  0.00 -1.00  1.00 -1.00  3.00  0.00 -1.00  1.00 -1.00
T_2g   3.00  0.00 -1.00 -1.00  1.00  3.00  0.00 -1.00 -1.00  1.00
A_1u   1.00  1.00  1.00  1.00  1.00 -1.00 -1.00 -1.00 -1.00 -1.00
A_2u   1.00  1.00  1.00 -1.00 -1.00 -1.00 -1.00 -1.00  1.00  1.00
E_u    2.00 -1.00  2.00  0.00  0.00 -2.00  1.00 -2.00  0.00  0.00
T_1u   3.00  0.00 -1.00  1.00 -1.00 -3.00  0.00  1.00 -1.00  1.00
T_2u   3.00  0.00 -1.00 -1.00  1.00 -3.00  0.00  1.00  1.00 -1.00

     the symmetry operations in each class and the name of the first element:

     E        1
          identity                                               
     8C3     17   19   20   18   24   21   22   23
          120 deg rotation - cart. axis [-1,-1,-1]               
     3C2      2    4    3
          180 deg rotation - cart. axis [0,0,1]                  
     6C4      7    8   15   16   12   11
           90 deg rotation - cart. axis [0,0,-1]                 
     6C2'     5    6   14   13   10    9
          180 deg rotation - cart. axis [1,1,0]                  
     i       25
          inversion                                              
     8S6     41   43   44   42   48   45   46   47
          inv. 120 deg rotation - cart. axis [-1,-1,-1]          
     3s_h    26   28   27
          inv. 180 deg rotation - cart. axis [0,0,1]             
     6S4     31   32   39   40   36   35
          inv.  90 deg rotation - cart. axis [0,0,-1]            
     6s_d    29   30   38   37   34   33
          inv. 180 deg rotation - cart. axis [1,1,0]             

   Cartesian axes

     site n.     atom                  positions (alat units)
         1           Si  tau(   1) = (   0.0000000   0.0000000   0.0000000  )
         2           Si  tau(   2) = (  -0.2500000   0.2500000   0.2500000  )

   Crystallographic axes

     site n.     atom                  positions (cryst. coord.)
         1           Si  tau(   1) = (  0.0000000  0.0000000  0.0000000  )
         2           Si  tau(   2) = (  0.2500000  0.2500000  0.2500000  )

     number of k points=    72
                       cart. coord. in units 2pi/alat
        k(    1) = (   0.0000000   0.0000000   0.0000000), wk =   0.0011574
        k(    2) = (  -0.0833333   0.0833333  -0.0833333), wk =   0.0092593
        k(    3) = (  -0.1666667   0.1666667  -0.1666667), wk =   0.0092593
        k(    4) = (  -0.2500000   0.2500000  -0.2500000), wk =   0.0092593
        k(    5) = (  -0.3333333   0.3333333  -0.3333333), wk =   0.0092593
        k(    6) = (  -0.4166667   0.4166667  -0.4166667), wk =   0.0092593
        k(    7) = (   0.5000000  -0.5000000   0.5000000), wk =   0.0046296
        k(    8) = (   0.0000000   0.1666667   0.0000000), wk =   0.0069444
        k(    9) = (  -0.0833333   0.2500000  -0.0833333), wk =   0.0277778
        k(   10) = (  -0.1666667   0.3333333  -0.1666667), wk =   0.0277778
        k(   11) = (  -0.2500000   0.4166667  -0.2500000), wk =   0.0277778
        k(   12) = (  -0.3333333   0.5000000  -0.3333333), wk =   0.0277778
        k(   13) = (   0.5833333  -0.4166667   0.5833333), wk =   0.0277778
        k(   14) = (   0.5000000  -0.3333333   0.5000000), wk =   0.0277778
        k(   15) = (   0.4166667  -0.2500000   0.4166667), wk =   0.0277778
        k(   16) = (   0.3333333  -0.1666667   0.3333333), wk =   0.0277778
        k(   17) = (   0.2500000  -0.0833333   0.2500000), wk =   0.0277778
        k(   18) = (   0.1666667  -0.0000000   0.1666667), wk =   0.0138889
        k(   19) = (   0.0000000   0.3333333   0.0000000), wk =   0.0069444
        k(   20) = (  -0.0833333   0.4166667  -0.0833333), wk =   0.0277778
        k(   21) = (  -0.1666667   0.5000000  -0.1666667), wk =   0.0277778
        k(   22) = (  -0.2500000   0.5833333  -0.2500000), wk =   0.0277778
        k(   23) = (   0.6666667  -0.3333333   0.6666667), wk =   0.0277778
        k(   24) = (   0.5833333  -0.2500000   0.5833333), wk =   0.0277778
        k(   25) = (   0.5000000  -0.1666667   0.5000000), wk =   0.0277778
        k(   26) = (   0.4166667  -0.0833333   0.4166667), wk =   0.0277778
        k(   27) = (   0.3333333   0.0000000   0.3333333), wk =   0.0138889
        k(   28) = (   0.0000000   0.5000000   0.0000000), wk =   0.0069444
        k(   29) = (  -0.0833333   0.5833333  -0.0833333), wk =   0.0277778
        k(   30) = (  -0.1666667   0.6666667  -0.1666667), wk =   0.0277778
        k(   31) = (   0.7500000  -0.2500000   0.7500000), wk =   0.0277778
        k(   32) = (   0.6666667  -0.1666667   0.6666667), wk =   0.0277778
        k(   33) = (   0.5833333  -0.0833333   0.5833333), wk =   0.0277778
        k(   34) = (   0.5000000   0.0000000   0.5000000), wk =   0.0138889
        k(   35) = (   0.0000000   0.6666667   0.0000000), wk =   0.0069444
        k(   36) = (  -0.0833333   0.7500000  -0.0833333), wk =   0.0277778
        k(   37) = (   0.8333333  -0.1666667   0.8333333), wk =   0.0277778
        k(   38) = (   0.7500000  -0.0833333   0.7500000), wk =   0.0277778
        k(   39) = (   0.6666667  -0.0000000   0.6666667), wk =   0.0138889
        k(   40) = (   0.0000000   0.8333333   0.0000000), wk =   0.0069444
        k(   41) = (   0.9166667  -0.0833333   0.9166667), wk =   0.0277778
        k(   42) = (   0.8333333   0.0000000   0.8333333), wk =   0.0138889
        k(   43) = (   0.0000000  -1.0000000   0.0000000), wk =   0.0034722
        k(   44) = (  -0.1666667   0.3333333   0.0000000), wk =   0.0277778
        k(   45) = (  -0.2500000   0.4166667  -0.0833333), wk =   0.0555556
        k(   46) = (  -0.3333333   0.5000000  -0.1666667), wk =   0.0555556
        k(   47) = (   0.5833333  -0.4166667   0.7500000), wk =   0.0555556
        k(   48) = (   0.5000000  -0.3333333   0.6666667), wk =   0.0277778
        k(   49) = (  -0.1666667   0.5000000   0.0000000), wk =   0.0277778
        k(   50) = (  -0.2500000   0.5833333  -0.0833333), wk =   0.0555556
        k(   51) = (   0.6666667  -0.3333333   0.8333333), wk =   0.0555556
        k(   52) = (   0.5833333  -0.2500000   0.7500000), wk =   0.0555556
        k(   53) = (   0.5000000  -0.1666667   0.6666667), wk =   0.0555556
        k(   54) = (   0.4166667  -0.0833333   0.5833333), wk =   0.0555556
        k(   55) = (   0.3333333   0.0000000   0.5000000), wk =   0.0277778
        k(   56) = (  -0.1666667   0.6666667  -0.0000000), wk =   0.0277778
        k(   57) = (   0.7500000  -0.2500000   0.9166667), wk =   0.0555556
        k(   58) = (   0.6666667  -0.1666667   0.8333333), wk =   0.0555556
        k(   59) = (   0.5833333  -0.0833333   0.7500000), wk =   0.0555556
        k(   60) = (   0.5000000   0.0000000   0.6666667), wk =   0.0277778
        k(   61) = (   0.8333333  -0.1666667   1.0000000), wk =   0.0277778
        k(   62) = (   0.7500000  -0.0833333   0.9166667), wk =   0.0555556
        k(   63) = (   0.6666667   0.0000000   0.8333333), wk =   0.0277778
        k(   64) = (  -0.1666667  -1.0000000  -0.0000000), wk =   0.0138889
        k(   65) = (   0.6666667  -0.3333333   1.0000000), wk =   0.0277778
        k(   66) = (   0.5833333  -0.2500000   0.9166667), wk =   0.0555556
        k(   67) = (   0.5000000  -0.1666667   0.8333333), wk =   0.0277778
        k(   68) = (   0.6666667  -0.1666667   1.0000000), wk =   0.0277778
        k(   69) = (   0.5833333  -0.0833333   0.9166667), wk =   0.0555556
        k(   70) = (   0.5000000   0.0000000   0.8333333), wk =   0.0277778
        k(   71) = (  -0.3333333  -1.0000000   0.0000000), wk =   0.0138889
        k(   72) = (  -0.5000000  -1.0000000   0.0000000), wk =   0.0069444

                       cryst. coord.
        k(    1) = (   0.0000000   0.0000000   0.0000000), wk =   0.0011574
        k(    2) = (   0.0000000   0.0000000   0.0833333), wk =   0.0092593
        k(    3) = (   0.0000000   0.0000000   0.1666667), wk =   0.0092593
        k(    4) = (   0.0000000   0.0000000   0.2500000), wk =   0.0092593
        k(    5) = (   0.0000000   0.0000000   0.3333333), wk =   0.0092593
        k(    6) = (   0.0000000   0.0000000   0.4166667), wk =   0.0092593
        k(    7) = (   0.0000000   0.0000000  -0.5000000), wk =   0.0046296
        k(    8) = (   0.0000000   0.0833333   0.0833333), wk =   0.0069444
        k(    9) = (   0.0000000   0.0833333   0.1666667), wk =   0.0277778
        k(   10) = (   0.0000000   0.0833333   0.2500000), wk =   0.0277778
        k(   11) = (   0.0000000   0.0833333   0.3333333), wk =   0.0277778
        k(   12) = (   0.0000000   0.0833333   0.4166667), wk =   0.0277778
        k(   13) = (   0.0000000   0.0833333  -0.5000000), wk =   0.0277778
        k(   14) = (   0.0000000   0.0833333  -0.4166667), wk =   0.0277778
        k(   15) = (   0.0000000   0.0833333  -0.3333333), wk =   0.0277778
        k(   16) = (   0.0000000   0.0833333  -0.2500000), wk =   0.0277778
        k(   17) = (   0.0000000   0.0833333  -0.1666667), wk =   0.0277778
        k(   18) = (   0.0000000   0.0833333  -0.0833333), wk =   0.0138889
        k(   19) = (   0.0000000   0.1666667   0.1666667), wk =   0.0069444
        k(   20) = (   0.0000000   0.1666667   0.2500000), wk =   0.0277778
        k(   21) = (   0.0000000   0.1666667   0.3333333), wk =   0.0277778
        k(   22) = (   0.0000000   0.1666667   0.4166667), wk =   0.0277778
        k(   23) = (   0.0000000   0.1666667  -0.5000000), wk =   0.0277778
        k(   24) = (   0.0000000   0.1666667  -0.4166667), wk =   0.0277778
        k(   25) = (   0.0000000   0.1666667  -0.3333333), wk =   0.0277778
        k(   26) = (   0.0000000   0.1666667  -0.2500000), wk =   0.0277778
        k(   27) = (   0.0000000   0.1666667  -0.1666667), wk =   0.0138889
        k(   28) = (   0.0000000   0.2500000   0.2500000), wk =   0.0069444
        k(   29) = (   0.0000000   0.2500000   0.3333333), wk =   0.0277778
        k(   30) = (   0.0000000   0.2500000   0.4166667), wk =   0.0277778
        k(   31) = (   0.0000000   0.2500000  -0.5000000), wk =   0.0277778
        k(   32) = (   0.0000000   0.2500000  -0.4166667), wk =   0.0277778
        k(   33) = (   0.0000000   0.2500000  -0.3333333), wk =   0.0277778
        k(   34) = (   0.0000000   0.2500000  -0.2500000), wk =   0.0138889
        k(   35) = (   0.0000000   0.3333333   0.3333333), wk =   0.0069444
        k(   36) = (   0.0000000   0.3333333   0.4166667), wk =   0.0277778
        k(   37) = (   0.0000000   0.3333333  -0.5000000), wk =   0.0277778
        k(   38) = (   0.0000000   0.3333333  -0.4166667), wk =   0.0277778
        k(   39) = (   0.0000000   0.3333333  -0.3333333), wk =   0.0138889
        k(   40) = (   0.0000000   0.4166667   0.4166667), wk =   0.0069444
        k(   41) = (   0.0000000   0.4166667  -0.5000000), wk =   0.0277778
        k(   42) = (   0.0000000   0.4166667  -0.4166667), wk =   0.0138889
        k(   43) = (   0.0000000  -0.5000000  -0.5000000), wk =   0.0034722
        k(   44) = (   0.0833333   0.1666667   0.2500000), wk =   0.0277778
        k(   45) = (   0.0833333   0.1666667   0.3333333), wk =   0.0555556
        k(   46) = (   0.0833333   0.1666667   0.4166667), wk =   0.0555556
        k(   47) = (   0.0833333   0.1666667  -0.5000000), wk =   0.0555556
        k(   48) = (   0.0833333   0.1666667  -0.4166667), wk =   0.0277778
        k(   49) = (   0.0833333   0.2500000   0.3333333), wk =   0.0277778
        k(   50) = (   0.0833333   0.2500000   0.4166667), wk =   0.0555556
        k(   51) = (   0.0833333   0.2500000  -0.5000000), wk =   0.0555556
        k(   52) = (   0.0833333   0.2500000  -0.4166667), wk =   0.0555556
        k(   53) = (   0.0833333   0.2500000  -0.3333333), wk =   0.0555556
        k(   54) = (   0.0833333   0.2500000  -0.2500000), wk =   0.0555556
        k(   55) = (   0.0833333   0.2500000  -0.1666667), wk =   0.0277778
        k(   56) = (   0.0833333   0.3333333   0.4166667), wk =   0.0277778
        k(   57) = (   0.0833333   0.3333333  -0.5000000), wk =   0.0555556
        k(   58) = (   0.0833333   0.3333333  -0.4166667), wk =   0.0555556
        k(   59) = (   0.0833333   0.3333333  -0.3333333), wk =   0.0555556
        k(   60) = (   0.0833333   0.3333333  -0.2500000), wk =   0.0277778
        k(   61) = (   0.0833333   0.4166667  -0.5000000), wk =   0.0277778
        k(   62) = (   0.0833333   0.4166667  -0.4166667), wk =   0.0555556
        k(   63) = (   0.0833333   0.4166667  -0.3333333), wk =   0.0277778
        k(   64) = (   0.0833333  -0.5000000  -0.4166667), wk =   0.0138889
        k(   65) = (   0.1666667   0.3333333  -0.5000000), wk =   0.0277778
        k(   66) = (   0.1666667   0.3333333  -0.4166667), wk =   0.0555556
        k(   67) = (   0.1666667   0.3333333  -0.3333333), wk =   0.0277778
        k(   68) = (   0.1666667   0.4166667  -0.4166667), wk =   0.0277778
        k(   69) = (   0.1666667   0.4166667  -0.3333333), wk =   0.0555556
        k(   70) = (   0.1666667   0.4166667  -0.2500000), wk =   0.0277778
        k(   71) = (   0.1666667  -0.5000000  -0.3333333), wk =   0.0138889
        k(   72) = (   0.2500000  -0.5000000  -0.2500000), wk =   0.0069444

     Dense  grid:     9257 G-vectors     FFT dimensions: (  32,  32,  32)

     Dynamical RAM for                 wfc:       0.09 MB

     Dynamical RAM for     wfc (w. buffer):       6.43 MB

     Dynamical RAM for           str. fact:       0.14 MB

     Dynamical RAM for           local pot:       0.00 MB

     Dynamical RAM for          nlocal pot:       0.28 MB

     Dynamical RAM for                qrad:       0.29 MB

     Dynamical RAM for          rho,v,vnew:       1.17 MB

     Dynamical RAM for               rhoin:       0.39 MB

     Dynamical RAM for            rho*nmix:       2.26 MB

     Dynamical RAM for           G-vectors:       0.60 MB

     Dynamical RAM for          h,s,v(r/c):       0.00 MB

     Dynamical RAM for          <psi|beta>:       0.00 MB

     Dynamical RAM for                 psi:       0.18 MB

     Dynamical RAM for                hpsi:       0.18 MB

     Dynamical RAM for      wfcinit/wfcrot:       0.18 MB

     Estimated static dynamical RAM per process >      10.84 MB

     Estimated max dynamical RAM per process >      13.46 MB

     Initial potential from superposition of free atoms

     starting charge       7.9075, renormalised to       8.0000
     Starting wfcs are random

     total cpu time spent up to now is        0.3 secs

     Self-consistent Calculation

     iteration #  1     ecut=    40.00 Ry     beta= 0.70
     Davidson diagonalization with overlap

---- Real-time Memory Report at c_bands before calling an iterative solver
            41 MiB given to the printing process from OS
             0 MiB allocation reported by mallinfo(arena+hblkhd)
           283 MiB available memory on the node where the printing process lives
------------------
     ethr =  1.00E-02,  avg # of iterations =  8.0

     Threshold (ethr) on eigenvalues was too large:
     Diagonalizing with lowered threshold

     Davidson diagonalization with overlap

---- Real-time Memory Report at c_bands before calling an iterative solver
            43 MiB given to the printing process from OS
             0 MiB allocation reported by mallinfo(arena+hblkhd)
           294 MiB available memory on the node where the printing process lives
------------------
     ethr =  6.06E-04,  avg # of iterations =  2.7

     total cpu time spent up to now is        2.3 secs

     total energy              =     -15.76278050 Ry
     estimated scf accuracy    <       0.05225603 Ry

     iteration #  2     ecut=    40.00 Ry     beta= 0.70
     Davidson diagonalization with overlap

---- Real-time Memory Report at c_bands before calling an iterative solver
            46 MiB given to the printing process from OS
             0 MiB allocation reported by mallinfo(arena+hblkhd)
           295 MiB available memory on the node where the printing process lives
------------------
     ethr =  6.53E-04,  avg # of iterations =  1.0

     total cpu time spent up to now is        2.8 secs

     total energy              =     -15.76526873 Ry
     estimated scf accuracy    <       0.00227171 Ry

     iteration #  3     ecut=    40.00 Ry     beta= 0.70
     Davidson diagonalization with overlap

---- Real-time Memory Report at c_bands before calling an iterative solver
            47 MiB given to the printing process from OS
             0 MiB allocation reported by mallinfo(arena+hblkhd)
           291 MiB available memory on the node where the printing process lives
------------------
     ethr =  2.84E-05,  avg # of iterations =  5.4

     total cpu time spent up to now is        3.6 secs

     total energy              =     -15.76572149 Ry
     estimated scf accuracy    <       0.00003946 Ry

     iteration #  4     ecut=    40.00 Ry     beta= 0.70
     Davidson diagonalization with overlap

---- Real-time Memory Report at c_bands before calling an iterative solver
            47 MiB given to the printing process from OS
             0 MiB allocation reported by mallinfo(arena+hblkhd)
           290 MiB available memory on the node where the printing process lives
------------------
     c_bands:  1 eigenvalues not converged
     c_bands:  1 eigenvalues not converged
     ethr =  4.93E-07,  avg # of iterations =  5.2

     total cpu time spent up to now is        4.4 secs

     total energy              =     -15.76574332 Ry
     estimated scf accuracy    <       0.00000025 Ry

     iteration #  5     ecut=    40.00 Ry     beta= 0.70
     Davidson diagonalization with overlap

---- Real-time Memory Report at c_bands before calling an iterative solver
            48 MiB given to the printing process from OS
             0 MiB allocation reported by mallinfo(arena+hblkhd)
           290 MiB available memory on the node where the printing process lives
------------------
     ethr =  3.17E-09,  avg # of iterations =  4.7

     total cpu time spent up to now is        5.3 secs

     total energy              =     -15.76574386 Ry
     estimated scf accuracy    <       0.00000002 Ry

     iteration #  6     ecut=    40.00 Ry     beta= 0.70
     Davidson diagonalization with overlap

---- Real-time Memory Report at c_bands before calling an iterative solver
            48 MiB given to the printing process from OS
             0 MiB allocation reported by mallinfo(arena+hblkhd)
           288 MiB available memory on the node where the printing process lives
------------------
     ethr =  2.70E-10,  avg # of iterations =  2.5

     total cpu time spent up to now is        5.9 secs

     End of self-consistent calculation

          k = 0.0000 0.0000 0.0000 (  1139 PWs)   bands (ev):

    -5.7361   6.2245   6.2245   6.2245   8.7857

     occupation numbers 
     1.0000   1.0000   1.0000   1.0000   0.0000

          k =-0.0833 0.0833-0.0833 (  1185 PWs)   bands (ev):

    -5.6451   5.3649   6.0813   6.0813   8.8241

     occupation numbers 
     1.0000   1.0000   1.0000   1.0000   0.0000

          k =-0.1667 0.1667-0.1667 (  1167 PWs)   bands (ev):

    -5.3751   3.8434   5.7766   5.7766   8.5604

     occupation numbers 
     1.0000   1.0000   1.0000   1.0000   0.0000

          k =-0.2500 0.2500-0.2500 (  1164 PWs)   bands (ev):

    -4.9368   2.2980   5.4689   5.4689   8.2349

     occupation numbers 
     1.0000   1.0000   1.0000   1.0000   0.0000

          k =-0.3333 0.3333-0.3333 (  1149 PWs)   bands (ev):

    -4.3601   0.8915   5.2297   5.2297   7.9670

     occupation numbers 
     1.0000   1.0000   1.0000   1.0000   0.0000

          k =-0.4167 0.4167-0.4167 (  1155 PWs)   bands (ev):

    -3.7401  -0.2378   5.0821   5.0821   7.7975

     occupation numbers 
     1.0000   1.0000   1.0000   1.0000   0.0000

          k = 0.5000-0.5000 0.5000 (  1158 PWs)   bands (ev):

    -3.4065  -0.7429   5.0326   5.0326   7.7399

     occupation numbers 
     1.0000   1.0000   1.0000   1.0000   0.0000

          k = 0.0000 0.1667 0.0000 (  1179 PWs)   bands (ev):

    -5.6147   5.5278   5.7961   5.7961   8.5093

     occupation numbers 
     1.0000   1.0000   1.0000   1.0000   0.0000

          k =-0.0833 0.2500-0.0833 (  1164 PWs)   bands (ev):

    -5.4038   4.2959   5.4340   5.6226   8.5292

     occupation numbers 
     1.0000   1.0000   1.0000   1.0000   0.0000

          k =-0.1667 0.3333-0.1667 (  1155 PWs)   bands (ev):

    -5.0201   2.7950   5.1222   5.2999   8.6500

     occupation numbers 
     1.0000   1.0000   1.0000   1.0000   0.0000

          k =-0.2500 0.4167-0.2500 (  1151 PWs)   bands (ev):

    -4.4844   1.3593   4.9135   4.9477   8.5022

     occupation numbers 
     1.0000   1.0000   1.0000   1.0000   0.0000

          k =-0.3333 0.5000-0.3333 (  1153 PWs)   bands (ev):

    -3.8592   0.1295   4.6521   4.8244   8.3352

     occupation numbers 
     1.0000   1.0000   1.0000   1.0000   0.0000

          k = 0.5833-0.4167 0.5833 (  1160 PWs)   bands (ev):

    -3.3690  -0.6399   4.4475   4.8556   8.2542

     occupation numbers 
     1.0000   1.0000   1.0000   1.0000   0.0000

          k = 0.5000-0.3333 0.5000 (  1156 PWs)   bands (ev):

    -3.4896  -0.4623   4.3523   4.9985   8.2812

     occupation numbers 
     1.0000   1.0000   1.0000   1.0000   0.0000

          k = 0.4167-0.2500 0.4167 (  1147 PWs)   bands (ev):

    -4.0710   0.5095   4.3794   5.2373   8.4151

     occupation numbers 
     1.0000   1.0000   1.0000   1.0000   0.0000

          k = 0.3333-0.1667 0.3333 (  1151 PWs)   bands (ev):

    -4.6786   1.8235   4.5387   5.5461   8.6424

     occupation numbers 
     1.0000   1.0000   1.0000   1.0000   0.0000

          k = 0.2500-0.0833 0.2500 (  1160 PWs)   bands (ev):

    -5.1671   3.2814   4.8422   5.8738   8.9275

     occupation numbers 
     1.0000   1.0000   1.0000   1.0000   0.0000

          k = 0.1667-0.0000 0.1667 (  1163 PWs)   bands (ev):

    -5.4943   4.6339   5.3637   6.1075   9.0346

     occupation numbers 
     1.0000   1.0000   1.0000   1.0000   0.0000

          k = 0.0000 0.3333 0.0000 (  1162 PWs)   bands (ev):

    -5.2523   4.1824   5.0363   5.0363   7.9220

     occupation numbers 
     1.0000   1.0000   1.0000   1.0000   0.0000

          k =-0.0833 0.4167-0.0833 (  1158 PWs)   bands (ev):

    -4.9252   3.0971   4.6882   4.7030   7.9404

     occupation numbers 
     1.0000   1.0000   1.0000   1.0000   0.0000

          k =-0.1667 0.5000-0.1667 (  1151 PWs)   bands (ev):

    -4.4374   1.7879   4.2351   4.4853   8.1783

     occupation numbers 
     1.0000   1.0000   1.0000   1.0000   0.0000

          k =-0.2500 0.5833-0.2500 (  1152 PWs)   bands (ev):

    -3.8299   0.5539   3.7957   4.4018   8.2210

     occupation numbers 
     1.0000   1.0000   1.0000   1.0000   0.0000

          k = 0.6667-0.3333 0.6667 (  1153 PWs)   bands (ev):

    -3.2469  -0.3798   3.4514   4.4558   8.2512

     occupation numbers 
     1.0000   1.0000   1.0000   1.0000   0.0000

          k = 0.5833-0.2500 0.5833 (  1157 PWs)   bands (ev):

    -3.1326  -0.5395   3.2377   4.6396   8.3956

     occupation numbers 
     1.0000   1.0000   1.0000   1.0000   0.0000

          k = 0.5000-0.1667 0.5000 (  1156 PWs)   bands (ev):

    -3.6314   0.2190   3.1814   4.9339   8.6610

     occupation numbers 
     1.0000   1.0000   1.0000   1.0000   0.0000

          k = 0.4167-0.0833 0.4167 (  1156 PWs)   bands (ev):

    -4.2555   1.3652   3.3262   5.3010   8.9938

     occupation numbers 
     1.0000   1.0000   1.0000   1.0000   0.0000

          k = 0.3333 0.0000 0.3333 (  1147 PWs)   bands (ev):

    -4.7872   2.5064   3.8169   5.6638   9.2521

     occupation numbers 
     1.0000   1.0000   1.0000   1.0000   0.0000

          k = 0.0000 0.5000 0.0000 (  1174 PWs)   bands (ev):

    -4.6547   2.7041   4.3415   4.3415   7.3446

     occupation numbers 
     1.0000   1.0000   1.0000   1.0000   0.0000

          k =-0.0833 0.5833-0.0833 (  1154 PWs)   bands (ev):

    -4.2183   1.7950   3.8756   4.0958   7.4277

     occupation numbers 
     1.0000   1.0000   1.0000   1.0000   0.0000

          k =-0.1667 0.6667-0.1667 (  1153 PWs)   bands (ev):

    -3.6432   0.7670   3.2424   3.9892   7.6433

     occupation numbers 
     1.0000   1.0000   1.0000   1.0000   0.0000

          k = 0.7500-0.2500 0.7500 (  1156 PWs)   bands (ev):

    -3.0195  -0.1584   2.6954   4.0279   7.7297

     occupation numbers 
     1.0000   1.0000   1.0000   1.0000   0.0000

          k = 0.6667-0.1667 0.6667 (  1151 PWs)   bands (ev):

    -2.6961  -0.5725   2.3324   4.2077   7.9088

     occupation numbers 
     1.0000   1.0000   1.0000   1.0000   0.0000

          k = 0.5833-0.0833 0.5833 (  1152 PWs)   bands (ev):

    -3.0717  -0.0790   2.2133   4.5120   8.2333

     occupation numbers 
     1.0000   1.0000   1.0000   1.0000   0.0000

          k = 0.5000 0.0000 0.5000 (  1159 PWs)   bands (ev):

    -3.6934   0.7435   2.4775   4.9033   8.6597

     occupation numbers 
     1.0000   1.0000   1.0000   1.0000   0.0000

          k = 0.0000 0.6667 0.0000 (  1150 PWs)   bands (ev):

    -3.8327   1.2113   3.8154   3.8154   6.9395

     occupation numbers 
     1.0000   1.0000   1.0000   1.0000   0.0000

          k =-0.0833 0.7500-0.0833 (  1152 PWs)   bands (ev):

    -3.2982   0.4258   3.3287   3.6732   7.1009

     occupation numbers 
     1.0000   1.0000   1.0000   1.0000   0.0000

          k = 0.8333-0.1667 0.8333 (  1149 PWs)   bands (ev):

    -2.6694  -0.3423   2.5994   3.6795   7.2728

     occupation numbers 
     1.0000   1.0000   1.0000   1.0000   0.0000

          k = 0.7500-0.0833 0.7500 (  1149 PWs)   bands (ev):

    -2.2008  -0.8330   2.0203   3.8330   7.4493

     occupation numbers 
     1.0000   1.0000   1.0000   1.0000   0.0000

          k = 0.6667-0.0000 0.6667 (  1141 PWs)   bands (ev):

    -2.4737  -0.5468   1.8182   4.1211   7.7765

     occupation numbers 
     1.0000   1.0000   1.0000   1.0000   0.0000

          k = 0.0000 0.8333 0.0000 (  1162 PWs)   bands (ev):

    -2.8036  -0.2390   3.4912   3.4912   6.7818

     occupation numbers 
     1.0000   1.0000   1.0000   1.0000   0.0000

          k = 0.9167-0.0833 0.9167 (  1150 PWs)   bands (ev):

    -2.1902  -0.9268   3.0582   3.4577   6.9820

     occupation numbers 
     1.0000   1.0000   1.0000   1.0000   0.0000

          k = 0.8333 0.0000 0.8333 (  1152 PWs)   bands (ev):

    -1.7347  -1.3306   2.3861   3.5746   7.1418

     occupation numbers 
     1.0000   1.0000   1.0000   1.0000   0.0000

          k = 0.0000-1.0000 0.0000 (  1162 PWs)   bands (ev):

    -1.5933  -1.5933   3.3819   3.3819   6.9185

     occupation numbers 
     1.0000   1.0000   1.0000   1.0000   0.0000

          k =-0.1667 0.3333 0.0000 (  1157 PWs)   bands (ev):

    -5.1352   3.4961   4.5950   5.5214   8.5553

     occupation numbers 
     1.0000   1.0000   1.0000   1.0000   0.0000

          k =-0.2500 0.4167-0.0833 (  1148 PWs)   bands (ev):

    -4.6990   2.2557   4.0628   5.2475   8.8332

     occupation numbers 
     1.0000   1.0000   1.0000   1.0000   0.0000

          k =-0.3333 0.5000-0.1667 (  1151 PWs)   bands (ev):

    -4.1241   0.9546   3.7932   4.9212   8.8705

     occupation numbers 
     1.0000   1.0000   1.0000   1.0000   0.0000

          k = 0.5833-0.4167 0.7500 (  1151 PWs)   bands (ev):

    -3.5028  -0.1348   3.6657   4.6755   8.8132

     occupation numbers 
     1.0000   1.0000   1.0000   1.0000   0.0000

          k = 0.5000-0.3333 0.6667 (  1152 PWs)   bands (ev):

    -3.1648  -0.6327   3.6301   4.5842   8.7910

     occupation numbers 
     1.0000   1.0000   1.0000   1.0000   0.0000

          k =-0.1667 0.5000 0.0000 (  1156 PWs)   bands (ev):

    -4.5443   2.3025   3.9009   4.6034   8.0054

     occupation numbers 
     1.0000   1.0000   1.0000   1.0000   0.0000

          k =-0.2500 0.5833-0.0833 (  1152 PWs)   bands (ev):

    -4.0119   1.2528   3.3630   4.3155   8.3361

     occupation numbers 
     1.0000   1.0000   1.0000   1.0000   0.0000

          k = 0.6667-0.3333 0.8333 (  1153 PWs)   bands (ev):

    -3.3867   0.1989   3.0057   4.1053   8.4549

     occupation numbers 
     1.0000   1.0000   1.0000   1.0000   0.0000

          k = 0.5833-0.2500 0.7500 (  1152 PWs)   bands (ev):

    -2.8903  -0.5071   2.7598   4.0873   8.5821

     occupation numbers 
     1.0000   1.0000   1.0000   1.0000   0.0000

          k = 0.5000-0.1667 0.6667 (  1152 PWs)   bands (ev):

    -3.0259  -0.3200   2.6416   4.2598   8.8315

     occupation numbers 
     1.0000   1.0000   1.0000   1.0000   0.0000

          k = 0.4167-0.0833 0.5833 (  1154 PWs)   bands (ev):

    -3.6157   0.5566   2.7160   4.5762   9.1909

     occupation numbers 
     1.0000   1.0000   1.0000   1.0000   0.0000

          k = 0.3333 0.0000 0.5000 (  1157 PWs)   bands (ev):

    -4.2181   1.5356   3.1314   4.9574   9.4283

     occupation numbers 
     1.0000   1.0000   1.0000   1.0000   0.0000

          k =-0.1667 0.6667-0.0000 (  1154 PWs)   bands (ev):

    -3.7341   1.0363   3.3922   3.8206   7.6058

     occupation numbers 
     1.0000   1.0000   1.0000   1.0000   0.0000

          k = 0.7500-0.2500 0.9167 (  1156 PWs)   bands (ev):

    -3.1287   0.2013   2.8035   3.6035   7.9378

     occupation numbers 
     1.0000   1.0000   1.0000   1.0000   0.0000

          k = 0.6667-0.1667 0.8333 (  1154 PWs)   bands (ev):

    -2.5397  -0.5131   2.2819   3.6115   8.0905

     occupation numbers 
     1.0000   1.0000   1.0000   1.0000   0.0000

          k = 0.5833-0.0833 0.7500 (  1157 PWs)   bands (ev):

    -2.4688  -0.5839   1.9931   3.8098   8.3469

     occupation numbers 
     1.0000   1.0000   1.0000   1.0000   0.0000

          k = 0.5000 0.0000 0.6667 (  1161 PWs)   bands (ev):

    -3.0062   0.0063   2.0799   4.1546   8.7389

     occupation numbers 
     1.0000   1.0000   1.0000   1.0000   0.0000

          k = 0.8333-0.1667 1.0000 (  1159 PWs)   bands (ev):

    -2.7262  -0.2756   3.1091   3.3060   7.4332

     occupation numbers 
     1.0000   1.0000   1.0000   1.0000   0.0000

          k = 0.7500-0.0833 0.9167 (  1153 PWs)   bands (ev):

    -2.0975  -0.9184   2.4794   3.2619   7.7237

     occupation numbers 
     1.0000   1.0000   1.0000   1.0000   0.0000

          k = 0.6667 0.0000 0.8333 (  1151 PWs)   bands (ev):

    -1.9431  -1.0316   1.9809   3.4589   7.9609

     occupation numbers 
     1.0000   1.0000   1.0000   1.0000   0.0000

          k =-0.1667-1.0000-0.0000 (  1148 PWs)   bands (ev):

    -1.5553  -1.5553   3.0741   3.0741   7.5335

     occupation numbers 
     1.0000   1.0000   1.0000   1.0000   0.0000

          k = 0.6667-0.3333 1.0000 (  1151 PWs)   bands (ev):

    -3.4478   0.5793   2.6612   3.9362   9.0654

     occupation numbers 
     1.0000   1.0000   1.0000   1.0000   0.0000

          k = 0.5833-0.2500 0.9167 (  1152 PWs)   bands (ev):

    -2.8240  -0.1903   2.3138   3.5993   9.4369

     occupation numbers 
     1.0000   1.0000   1.0000   1.0000   0.0000

          k = 0.5000-0.1667 0.8333 (  1152 PWs)   bands (ev):

    -2.4638  -0.6192   2.2206   3.4700   9.5642

     occupation numbers 
     1.0000   1.0000   1.0000   1.0000   0.0000

          k = 0.6667-0.1667 1.0000 (  1155 PWs)   bands (ev):

    -2.5125  -0.4197   2.4629   3.0820   8.8931

     occupation numbers 
     1.0000   1.0000   1.0000   1.0000   0.0000

          k = 0.5833-0.0833 0.9167 (  1158 PWs)   bands (ev):

    -1.9896  -0.9262   2.1472   2.9276   9.2324

     occupation numbers 
     1.0000   1.0000   1.0000   1.0000   0.0000

          k = 0.5000 0.0000 0.8333 (  1153 PWs)   bands (ev):

    -2.2211  -0.6962   2.0222   3.1526   9.5338

     occupation numbers 
     1.0000   1.0000   1.0000   1.0000   0.0000

          k =-0.3333-1.0000 0.0000 (  1154 PWs)   bands (ev):

    -1.4738  -1.4738   2.5869   2.5869   8.9578

     occupation numbers 
     1.0000   1.0000   1.0000   1.0000   0.0000

          k =-0.5000-1.0000 0.0000 (  1144 PWs)   bands (ev):

    -1.4299  -1.4299   2.3787   2.3787  10.4742

     occupation numbers 
     1.0000   1.0000   1.0000   1.0000   0.0000

     highest occupied, lowest unoccupied level (ev):     6.2245    6.7818

!    total energy              =     -15.76574386 Ry
     estimated scf accuracy    <          6.6E-11 Ry

     The total energy is the sum of the following terms:
     one-electron contribution =       4.74604626 Ry
     hartree contribution      =       1.10098044 Ry
     xc contribution           =      -4.81544279 Ry
     ewald contribution        =     -16.79732777 Ry

     convergence has been achieved in   6 iterations

     Writing all to output data dir ./out/si.save/
 
     init_run     :      0.23s CPU      0.29s WALL (       1 calls)
     electrons    :      5.47s CPU      5.56s WALL (       1 calls)

     Called by init_run:
     wfcinit      :      0.19s CPU      0.20s WALL (       1 calls)
     wfcinit:wfcr :      0.17s CPU      0.18s WALL (      72 calls)
     potinit      :      0.01s CPU      0.02s WALL (       1 calls)
     hinit0       :      0.01s CPU      0.02s WALL (       1 calls)

     Called by electrons:
     c_bands      :      4.78s CPU      4.85s WALL (       7 calls)
     sum_band     :      0.63s CPU      0.65s WALL (       7 calls)
     v_of_rho     :      0.06s CPU      0.07s WALL (       7 calls)
     v_h          :      0.00s CPU      0.00s WALL (       7 calls)
     v_xc         :      0.06s CPU      0.06s WALL (       7 calls)
     mix_rho      :      0.00s CPU      0.01s WALL (       7 calls)

     Called by c_bands:
     init_us_2    :      0.12s CPU      0.13s WALL (    1080 calls)
     init_us_2:cp :      0.12s CPU      0.13s WALL (    1080 calls)
     cegterg      :      4.50s CPU      4.56s WALL (     504 calls)

     Called by sum_band:
     sum_band:wei :      0.00s CPU      0.00s WALL (       7 calls)
     sum_band:loo :      0.62s CPU      0.63s WALL (       7 calls)
     sum_band:buf :      0.00s CPU      0.01s WALL (     504 calls)
     sum_band:ini :      0.06s CPU      0.06s WALL (     504 calls)

     Called by *egterg:
     cdiaghg      :      0.11s CPU      0.12s WALL (    2558 calls)
     cegterg:over :      0.08s CPU      0.08s WALL (    2126 calls)
     cegterg:upda :      0.07s CPU      0.07s WALL (    2126 calls)
     cegterg:last :      0.08s CPU      0.08s WALL (    1557 calls)
     h_psi        :      4.26s CPU      4.31s WALL (    2702 calls)
     g_psi        :      0.02s CPU      0.02s WALL (    2126 calls)

     Called by h_psi:
     h_psi:calbec :      0.09s CPU      0.09s WALL (    2702 calls)
     vloc_psi     :      4.06s CPU      4.11s WALL (    2702 calls)
     add_vuspsi   :      0.08s CPU      0.08s WALL (    2702 calls)

     General routines
     calbec       :      0.08s CPU      0.09s WALL (    2702 calls)
     fft          :      0.01s CPU      0.02s WALL (      70 calls)
     ffts         :      0.00s CPU      0.00s WALL (       7 calls)
     fftw         :      4.11s CPU      4.17s WALL (   21532 calls)
 
     Parallel routines
 
     PWSCF        :      5.73s CPU      5.96s WALL

 
   This run was terminated on:  14:10:20  31Oct2022            

=------------------------------------------------------------------------------=
   JOB DONE.
=------------------------------------------------------------------------------=
