
     Program PWSCF v.7.1 starts on  1Nov2022 at 12: 1:43 

     This program is part of the open-source Quantum ESPRESSO suite
     for quantum simulation of materials; please cite
         "P. Giannozzi et al., J. Phys.:Condens. Matter 21 395502 (2009);
         "P. Giannozzi et al., J. Phys.:Condens. Matter 29 465901 (2017);
         "P. Giannozzi et al., J. Chem. Phys. 152 154105 (2020);
          URL http://www.quantum-espresso.org", 
     in publications or presentations arising from this work. More details at
     http://www.quantum-espresso.org/quote

     Parallel version (MPI), running on     1 processors

     MPI processes distributed on     1 nodes
     224 MiB available memory on the printing compute node when the environment starts
 
     Reading input from Si.scf.in

     Current dimensions of program PWSCF are:
     Max number of different atomic species (ntypx) = 10
     Max number of k-points (npk) =  40000
     Max angular momentum in pseudopotentials (lmaxx) =  4
 
     Subspace diagonalization in iterative solution of the eigenvalue problem:
     a serial algorithm will be used

 
     G-vector sticks info
     --------------------
     sticks:   dense  smooth     PW     G-vecs:    dense   smooth      PW
     Sum         583     583    187                 9257     9257    1639
 
     Using Slab Decomposition
 


     bravais-lattice index     =            2
     lattice parameter (alat)  =      10.2622  a.u.
     unit-cell volume          =     270.1851 (a.u.)^3
     number of atoms/cell      =            2
     number of atomic types    =            1
     number of electrons       =         8.00
     number of Kohn-Sham states=            5
     kinetic-energy cutoff     =      40.0000  Ry
     charge density cutoff     =     160.0000  Ry
     scf convergence threshold =      1.0E-08
     mixing beta               =       0.7000
     number of iterations used =            8  plain     mixing
     Exchange-correlation= PBE
                           (   1   4   3   4   0   0   0)

     celldm(1)=  10.262200  celldm(2)=   0.000000  celldm(3)=   0.000000
     celldm(4)=   0.000000  celldm(5)=   0.000000  celldm(6)=   0.000000

     crystal axes: (cart. coord. in units of alat)
               a(1) = (  -0.500000   0.000000   0.500000 )  
               a(2) = (   0.000000   0.500000   0.500000 )  
               a(3) = (  -0.500000   0.500000   0.000000 )  

     reciprocal axes: (cart. coord. in units 2 pi/alat)
               b(1) = ( -1.000000 -1.000000  1.000000 )  
               b(2) = (  1.000000  1.000000  1.000000 )  
               b(3) = ( -1.000000  1.000000 -1.000000 )  


     PseudoPot. # 1 for Si read from file:
     ../../files/pseudo/Si.pbe_PseudoDojo.UPF
     MD5 check sum: 02fab3f35e82123ef5bf1cb05d5b1a5e
     Pseudo is Norm-conserving + core correction, Zval =  4.0
     Generated using ONCVPSP code by D. R. Hamann
     Using radial grid of 1510 points,  6 beta functions with: 
                l(1) =   0
                l(2) =   0
                l(3) =   1
                l(4) =   1
                l(5) =   2
                l(6) =   2

     atomic species   valence    mass     pseudopotential
        Si             4.00    28.08600     Si( 1.00)

     48 Sym. Ops., with inversion, found (24 have fractional translation)


                                    s                        frac. trans.

      isym =  1     identity                                     

 cryst.   s( 1) = (     1          0          0      )
                  (     0          1          0      )
                  (     0          0          1      )

 cart.    s( 1) = (  1.0000000  0.0000000  0.0000000 )
                  (  0.0000000  1.0000000  0.0000000 )
                  (  0.0000000  0.0000000  1.0000000 )


      isym =  2     180 deg rotation - cart. axis [0,0,1]        

 cryst.   s( 2) = (     0          1         -1      )
                  (     1          0         -1      )
                  (     0          0         -1      )

 cart.    s( 2) = ( -1.0000000  0.0000000  0.0000000 )
                  (  0.0000000 -1.0000000  0.0000000 )
                  (  0.0000000  0.0000000  1.0000000 )


      isym =  3     180 deg rotation - cart. axis [0,1,0]        

 cryst.   s( 3) = (    -1          0          0      )
                  (    -1          0          1      )
                  (    -1          1          0      )

 cart.    s( 3) = ( -1.0000000  0.0000000  0.0000000 )
                  (  0.0000000  1.0000000  0.0000000 )
                  (  0.0000000  0.0000000 -1.0000000 )


      isym =  4     180 deg rotation - cart. axis [1,0,0]        

 cryst.   s( 4) = (     0         -1          1      )
                  (     0         -1          0      )
                  (     1         -1          0      )

 cart.    s( 4) = (  1.0000000  0.0000000  0.0000000 )
                  (  0.0000000 -1.0000000  0.0000000 )
                  (  0.0000000  0.0000000 -1.0000000 )


      isym =  5     180 deg rotation - cart. axis [1,1,0]        

 cryst.   s( 5) = (     0         -1          0      )    f =( -0.2500000 )
                  (    -1          0          0      )       ( -0.2500000 )
                  (     0          0         -1      )       ( -0.2500000 )

 cart.    s( 5) = (  0.0000000  1.0000000  0.0000000 )    f =(  0.2500000 )
                  (  1.0000000  0.0000000  0.0000000 )       ( -0.2500000 )
                  (  0.0000000  0.0000000 -1.0000000 )       ( -0.2500000 )


      isym =  6     180 deg rotation - cart. axis [1,-1,0]       

 cryst.   s( 6) = (    -1          0          1      )    f =( -0.2500000 )
                  (     0         -1          1      )       ( -0.2500000 )
                  (     0          0          1      )       ( -0.2500000 )

 cart.    s( 6) = (  0.0000000 -1.0000000  0.0000000 )    f =(  0.2500000 )
                  ( -1.0000000  0.0000000  0.0000000 )       ( -0.2500000 )
                  (  0.0000000  0.0000000 -1.0000000 )       ( -0.2500000 )


      isym =  7      90 deg rotation - cart. axis [0,0,-1]       

 cryst.   s( 7) = (     0          1          0      )    f =( -0.2500000 )
                  (     0          1         -1      )       ( -0.2500000 )
                  (    -1          1          0      )       ( -0.2500000 )

 cart.    s( 7) = (  0.0000000  1.0000000  0.0000000 )    f =(  0.2500000 )
                  ( -1.0000000  0.0000000  0.0000000 )       ( -0.2500000 )
                  (  0.0000000  0.0000000  1.0000000 )       ( -0.2500000 )


      isym =  8      90 deg rotation - cart. axis [0,0,1]        

 cryst.   s( 8) = (     1          0         -1      )    f =( -0.2500000 )
                  (     1          0          0      )       ( -0.2500000 )
                  (     1         -1          0      )       ( -0.2500000 )

 cart.    s( 8) = (  0.0000000 -1.0000000  0.0000000 )    f =(  0.2500000 )
                  (  1.0000000  0.0000000  0.0000000 )       ( -0.2500000 )
                  (  0.0000000  0.0000000  1.0000000 )       ( -0.2500000 )


      isym =  9     180 deg rotation - cart. axis [1,0,1]        

 cryst.   s( 9) = (    -1          0          0      )    f =( -0.2500000 )
                  (     0          0         -1      )       ( -0.2500000 )
                  (     0         -1          0      )       ( -0.2500000 )

 cart.    s( 9) = (  0.0000000  0.0000000  1.0000000 )    f =(  0.2500000 )
                  (  0.0000000 -1.0000000  0.0000000 )       ( -0.2500000 )
                  (  1.0000000  0.0000000  0.0000000 )       ( -0.2500000 )


      isym = 10     180 deg rotation - cart. axis [-1,0,1]       

 cryst.   s(10) = (     1          0          0      )    f =( -0.2500000 )
                  (     1         -1          0      )       ( -0.2500000 )
                  (     1          0         -1      )       ( -0.2500000 )

 cart.    s(10) = (  0.0000000  0.0000000 -1.0000000 )    f =(  0.2500000 )
                  (  0.0000000 -1.0000000  0.0000000 )       ( -0.2500000 )
                  ( -1.0000000  0.0000000  0.0000000 )       ( -0.2500000 )


      isym = 11      90 deg rotation - cart. axis [0,1,0]        

 cryst.   s(11) = (     0          1         -1      )    f =( -0.2500000 )
                  (    -1          1          0      )       ( -0.2500000 )
                  (     0          1          0      )       ( -0.2500000 )

 cart.    s(11) = (  0.0000000  0.0000000  1.0000000 )    f =(  0.2500000 )
                  (  0.0000000  1.0000000  0.0000000 )       ( -0.2500000 )
                  ( -1.0000000  0.0000000  0.0000000 )       ( -0.2500000 )


      isym = 12      90 deg rotation - cart. axis [0,-1,0]       

 cryst.   s(12) = (     0         -1          1      )    f =( -0.2500000 )
                  (     0          0          1      )       ( -0.2500000 )
                  (    -1          0          1      )       ( -0.2500000 )

 cart.    s(12) = (  0.0000000  0.0000000 -1.0000000 )    f =(  0.2500000 )
                  (  0.0000000  1.0000000  0.0000000 )       ( -0.2500000 )
                  (  1.0000000  0.0000000  0.0000000 )       ( -0.2500000 )


      isym = 13     180 deg rotation - cart. axis [0,1,1]        

 cryst.   s(13) = (    -1          1          0      )    f =( -0.2500000 )
                  (     0          1          0      )       ( -0.2500000 )
                  (     0          1         -1      )       ( -0.2500000 )

 cart.    s(13) = ( -1.0000000  0.0000000  0.0000000 )    f =(  0.2500000 )
                  (  0.0000000  0.0000000  1.0000000 )       ( -0.2500000 )
                  (  0.0000000  1.0000000  0.0000000 )       ( -0.2500000 )


      isym = 14     180 deg rotation - cart. axis [0,1,-1]       

 cryst.   s(14) = (     0          0         -1      )    f =( -0.2500000 )
                  (     0         -1          0      )       ( -0.2500000 )
                  (    -1          0          0      )       ( -0.2500000 )

 cart.    s(14) = ( -1.0000000  0.0000000  0.0000000 )    f =(  0.2500000 )
                  (  0.0000000  0.0000000 -1.0000000 )       ( -0.2500000 )
                  (  0.0000000 -1.0000000  0.0000000 )       ( -0.2500000 )


      isym = 15      90 deg rotation - cart. axis [-1,0,0]       

 cryst.   s(15) = (     0          0          1      )    f =( -0.2500000 )
                  (    -1          0          1      )       ( -0.2500000 )
                  (     0         -1          1      )       ( -0.2500000 )

 cart.    s(15) = (  1.0000000  0.0000000  0.0000000 )    f =(  0.2500000 )
                  (  0.0000000  0.0000000  1.0000000 )       ( -0.2500000 )
                  (  0.0000000 -1.0000000  0.0000000 )       ( -0.2500000 )


      isym = 16      90 deg rotation - cart. axis [1,0,0]        

 cryst.   s(16) = (     1         -1          0      )    f =( -0.2500000 )
                  (     1          0         -1      )       ( -0.2500000 )
                  (     1          0          0      )       ( -0.2500000 )

 cart.    s(16) = (  1.0000000  0.0000000  0.0000000 )    f =(  0.2500000 )
                  (  0.0000000  0.0000000 -1.0000000 )       ( -0.2500000 )
                  (  0.0000000  1.0000000  0.0000000 )       ( -0.2500000 )


      isym = 17     120 deg rotation - cart. axis [-1,-1,-1]     

 cryst.   s(17) = (    -1          0          1      )
                  (    -1          1          0      )
                  (    -1          0          0      )

 cart.    s(17) = (  0.0000000  1.0000000  0.0000000 )
                  (  0.0000000  0.0000000  1.0000000 )
                  (  1.0000000  0.0000000  0.0000000 )


      isym = 18     120 deg rotation - cart. axis [-1,1,1]       

 cryst.   s(18) = (     0          1          0      )
                  (     0          0          1      )
                  (     1          0          0      )

 cart.    s(18) = (  0.0000000 -1.0000000  0.0000000 )
                  (  0.0000000  0.0000000  1.0000000 )
                  ( -1.0000000  0.0000000  0.0000000 )


      isym = 19     120 deg rotation - cart. axis [1,1,-1]       

 cryst.   s(19) = (     1          0         -1      )
                  (     0          0         -1      )
                  (     0          1         -1      )

 cart.    s(19) = (  0.0000000  1.0000000  0.0000000 )
                  (  0.0000000  0.0000000 -1.0000000 )
                  ( -1.0000000  0.0000000  0.0000000 )


      isym = 20     120 deg rotation - cart. axis [1,-1,1]       

 cryst.   s(20) = (     0         -1          0      )
                  (     1         -1          0      )
                  (     0         -1          1      )

 cart.    s(20) = (  0.0000000 -1.0000000  0.0000000 )
                  (  0.0000000  0.0000000 -1.0000000 )
                  (  1.0000000  0.0000000  0.0000000 )


      isym = 21     120 deg rotation - cart. axis [1,1,1]        

 cryst.   s(21) = (     0          0         -1      )
                  (     0          1         -1      )
                  (     1          0         -1      )

 cart.    s(21) = (  0.0000000  0.0000000  1.0000000 )
                  (  1.0000000  0.0000000  0.0000000 )
                  (  0.0000000  1.0000000  0.0000000 )


      isym = 22     120 deg rotation - cart. axis [-1,1,-1]      

 cryst.   s(22) = (    -1          1          0      )
                  (    -1          0          0      )
                  (    -1          0          1      )

 cart.    s(22) = (  0.0000000  0.0000000  1.0000000 )
                  ( -1.0000000  0.0000000  0.0000000 )
                  (  0.0000000 -1.0000000  0.0000000 )


      isym = 23     120 deg rotation - cart. axis [1,-1,-1]      

 cryst.   s(23) = (     0          0          1      )
                  (     1          0          0      )
                  (     0          1          0      )

 cart.    s(23) = (  0.0000000  0.0000000 -1.0000000 )
                  ( -1.0000000  0.0000000  0.0000000 )
                  (  0.0000000  1.0000000  0.0000000 )


      isym = 24     120 deg rotation - cart. axis [-1,-1,1]      

 cryst.   s(24) = (     1         -1          0      )
                  (     0         -1          1      )
                  (     0         -1          0      )

 cart.    s(24) = (  0.0000000  0.0000000 -1.0000000 )
                  (  1.0000000  0.0000000  0.0000000 )
                  (  0.0000000 -1.0000000  0.0000000 )


      isym = 25     inversion                                    

 cryst.   s(25) = (    -1          0          0      )    f =( -0.2500000 )
                  (     0         -1          0      )       ( -0.2500000 )
                  (     0          0         -1      )       ( -0.2500000 )

 cart.    s(25) = ( -1.0000000  0.0000000  0.0000000 )    f =(  0.2500000 )
                  (  0.0000000 -1.0000000  0.0000000 )       ( -0.2500000 )
                  (  0.0000000  0.0000000 -1.0000000 )       ( -0.2500000 )


      isym = 26     inv. 180 deg rotation - cart. axis [0,0,1]   

 cryst.   s(26) = (     0         -1          1      )    f =( -0.2500000 )
                  (    -1          0          1      )       ( -0.2500000 )
                  (     0          0          1      )       ( -0.2500000 )

 cart.    s(26) = (  1.0000000  0.0000000  0.0000000 )    f =(  0.2500000 )
                  (  0.0000000  1.0000000  0.0000000 )       ( -0.2500000 )
                  (  0.0000000  0.0000000 -1.0000000 )       ( -0.2500000 )


      isym = 27     inv. 180 deg rotation - cart. axis [0,1,0]   

 cryst.   s(27) = (     1          0          0      )    f =( -0.2500000 )
                  (     1          0         -1      )       ( -0.2500000 )
                  (     1         -1          0      )       ( -0.2500000 )

 cart.    s(27) = (  1.0000000  0.0000000  0.0000000 )    f =(  0.2500000 )
                  (  0.0000000 -1.0000000  0.0000000 )       ( -0.2500000 )
                  (  0.0000000  0.0000000  1.0000000 )       ( -0.2500000 )


      isym = 28     inv. 180 deg rotation - cart. axis [1,0,0]   

 cryst.   s(28) = (     0          1         -1      )    f =( -0.2500000 )
                  (     0          1          0      )       ( -0.2500000 )
                  (    -1          1          0      )       ( -0.2500000 )

 cart.    s(28) = ( -1.0000000  0.0000000  0.0000000 )    f =(  0.2500000 )
                  (  0.0000000  1.0000000  0.0000000 )       ( -0.2500000 )
                  (  0.0000000  0.0000000  1.0000000 )       ( -0.2500000 )


      isym = 29     inv. 180 deg rotation - cart. axis [1,1,0]   

 cryst.   s(29) = (     0          1          0      )
                  (     1          0          0      )
                  (     0          0          1      )

 cart.    s(29) = (  0.0000000 -1.0000000  0.0000000 )
                  ( -1.0000000  0.0000000  0.0000000 )
                  (  0.0000000  0.0000000  1.0000000 )


      isym = 30     inv. 180 deg rotation - cart. axis [1,-1,0]  

 cryst.   s(30) = (     1          0         -1      )
                  (     0          1         -1      )
                  (     0          0         -1      )

 cart.    s(30) = (  0.0000000  1.0000000  0.0000000 )
                  (  1.0000000  0.0000000  0.0000000 )
                  (  0.0000000  0.0000000  1.0000000 )


      isym = 31     inv.  90 deg rotation - cart. axis [0,0,-1]  

 cryst.   s(31) = (     0         -1          0      )
                  (     0         -1          1      )
                  (     1         -1          0      )

 cart.    s(31) = (  0.0000000 -1.0000000  0.0000000 )
                  (  1.0000000  0.0000000  0.0000000 )
                  (  0.0000000  0.0000000 -1.0000000 )


      isym = 32     inv.  90 deg rotation - cart. axis [0,0,1]   

 cryst.   s(32) = (    -1          0          1      )
                  (    -1          0          0      )
                  (    -1          1          0      )

 cart.    s(32) = (  0.0000000  1.0000000  0.0000000 )
                  ( -1.0000000  0.0000000  0.0000000 )
                  (  0.0000000  0.0000000 -1.0000000 )


      isym = 33     inv. 180 deg rotation - cart. axis [1,0,1]   

 cryst.   s(33) = (     1          0          0      )
                  (     0          0          1      )
                  (     0          1          0      )

 cart.    s(33) = (  0.0000000  0.0000000 -1.0000000 )
                  (  0.0000000  1.0000000  0.0000000 )
                  ( -1.0000000  0.0000000  0.0000000 )


      isym = 34     inv. 180 deg rotation - cart. axis [-1,0,1]  

 cryst.   s(34) = (    -1          0          0      )
                  (    -1          1          0      )
                  (    -1          0          1      )

 cart.    s(34) = (  0.0000000  0.0000000  1.0000000 )
                  (  0.0000000  1.0000000  0.0000000 )
                  (  1.0000000  0.0000000  0.0000000 )


      isym = 35     inv.  90 deg rotation - cart. axis [0,1,0]   

 cryst.   s(35) = (     0         -1          1      )
                  (     1         -1          0      )
                  (     0         -1          0      )

 cart.    s(35) = (  0.0000000  0.0000000 -1.0000000 )
                  (  0.0000000 -1.0000000  0.0000000 )
                  (  1.0000000  0.0000000  0.0000000 )


      isym = 36     inv.  90 deg rotation - cart. axis [0,-1,0]  

 cryst.   s(36) = (     0          1         -1      )
                  (     0          0         -1      )
                  (     1          0         -1      )

 cart.    s(36) = (  0.0000000  0.0000000  1.0000000 )
                  (  0.0000000 -1.0000000  0.0000000 )
                  ( -1.0000000  0.0000000  0.0000000 )


      isym = 37     inv. 180 deg rotation - cart. axis [0,1,1]   

 cryst.   s(37) = (     1         -1          0      )
                  (     0         -1          0      )
                  (     0         -1          1      )

 cart.    s(37) = (  1.0000000  0.0000000  0.0000000 )
                  (  0.0000000  0.0000000 -1.0000000 )
                  (  0.0000000 -1.0000000  0.0000000 )


      isym = 38     inv. 180 deg rotation - cart. axis [0,1,-1]  

 cryst.   s(38) = (     0          0          1      )
                  (     0          1          0      )
                  (     1          0          0      )

 cart.    s(38) = (  1.0000000  0.0000000  0.0000000 )
                  (  0.0000000  0.0000000  1.0000000 )
                  (  0.0000000  1.0000000  0.0000000 )


      isym = 39     inv.  90 deg rotation - cart. axis [-1,0,0]  

 cryst.   s(39) = (     0          0         -1      )
                  (     1          0         -1      )
                  (     0          1         -1      )

 cart.    s(39) = ( -1.0000000  0.0000000  0.0000000 )
                  (  0.0000000  0.0000000 -1.0000000 )
                  (  0.0000000  1.0000000  0.0000000 )


      isym = 40     inv.  90 deg rotation - cart. axis [1,0,0]   

 cryst.   s(40) = (    -1          1          0      )
                  (    -1          0          1      )
                  (    -1          0          0      )

 cart.    s(40) = ( -1.0000000  0.0000000  0.0000000 )
                  (  0.0000000  0.0000000  1.0000000 )
                  (  0.0000000 -1.0000000  0.0000000 )


      isym = 41     inv. 120 deg rotation - cart. axis [-1,-1,-1]

 cryst.   s(41) = (     1          0         -1      )    f =( -0.2500000 )
                  (     1         -1          0      )       ( -0.2500000 )
                  (     1          0          0      )       ( -0.2500000 )

 cart.    s(41) = (  0.0000000 -1.0000000  0.0000000 )    f =(  0.2500000 )
                  (  0.0000000  0.0000000 -1.0000000 )       ( -0.2500000 )
                  ( -1.0000000  0.0000000  0.0000000 )       ( -0.2500000 )


      isym = 42     inv. 120 deg rotation - cart. axis [-1,1,1]  

 cryst.   s(42) = (     0         -1          0      )    f =( -0.2500000 )
                  (     0          0         -1      )       ( -0.2500000 )
                  (    -1          0          0      )       ( -0.2500000 )

 cart.    s(42) = (  0.0000000  1.0000000  0.0000000 )    f =(  0.2500000 )
                  (  0.0000000  0.0000000 -1.0000000 )       ( -0.2500000 )
                  (  1.0000000  0.0000000  0.0000000 )       ( -0.2500000 )


      isym = 43     inv. 120 deg rotation - cart. axis [1,1,-1]  

 cryst.   s(43) = (    -1          0          1      )    f =( -0.2500000 )
                  (     0          0          1      )       ( -0.2500000 )
                  (     0         -1          1      )       ( -0.2500000 )

 cart.    s(43) = (  0.0000000 -1.0000000  0.0000000 )    f =(  0.2500000 )
                  (  0.0000000  0.0000000  1.0000000 )       ( -0.2500000 )
                  (  1.0000000  0.0000000  0.0000000 )       ( -0.2500000 )


      isym = 44     inv. 120 deg rotation - cart. axis [1,-1,1]  

 cryst.   s(44) = (     0          1          0      )    f =( -0.2500000 )
                  (    -1          1          0      )       ( -0.2500000 )
                  (     0          1         -1      )       ( -0.2500000 )

 cart.    s(44) = (  0.0000000  1.0000000  0.0000000 )    f =(  0.2500000 )
                  (  0.0000000  0.0000000  1.0000000 )       ( -0.2500000 )
                  ( -1.0000000  0.0000000  0.0000000 )       ( -0.2500000 )


      isym = 45     inv. 120 deg rotation - cart. axis [1,1,1]   

 cryst.   s(45) = (     0          0          1      )    f =( -0.2500000 )
                  (     0         -1          1      )       ( -0.2500000 )
                  (    -1          0          1      )       ( -0.2500000 )

 cart.    s(45) = (  0.0000000  0.0000000 -1.0000000 )    f =(  0.2500000 )
                  ( -1.0000000  0.0000000  0.0000000 )       ( -0.2500000 )
                  (  0.0000000 -1.0000000  0.0000000 )       ( -0.2500000 )


      isym = 46     inv. 120 deg rotation - cart. axis [-1,1,-1] 

 cryst.   s(46) = (     1         -1          0      )    f =( -0.2500000 )
                  (     1          0          0      )       ( -0.2500000 )
                  (     1          0         -1      )       ( -0.2500000 )

 cart.    s(46) = (  0.0000000  0.0000000 -1.0000000 )    f =(  0.2500000 )
                  (  1.0000000  0.0000000  0.0000000 )       ( -0.2500000 )
                  (  0.0000000  1.0000000  0.0000000 )       ( -0.2500000 )


      isym = 47     inv. 120 deg rotation - cart. axis [1,-1,-1] 

 cryst.   s(47) = (     0          0         -1      )    f =( -0.2500000 )
                  (    -1          0          0      )       ( -0.2500000 )
                  (     0         -1          0      )       ( -0.2500000 )

 cart.    s(47) = (  0.0000000  0.0000000  1.0000000 )    f =(  0.2500000 )
                  (  1.0000000  0.0000000  0.0000000 )       ( -0.2500000 )
                  (  0.0000000 -1.0000000  0.0000000 )       ( -0.2500000 )


      isym = 48     inv. 120 deg rotation - cart. axis [-1,-1,1] 

 cryst.   s(48) = (    -1          1          0      )    f =( -0.2500000 )
                  (     0          1         -1      )       ( -0.2500000 )
                  (     0          1          0      )       ( -0.2500000 )

 cart.    s(48) = (  0.0000000  0.0000000  1.0000000 )    f =(  0.2500000 )
                  ( -1.0000000  0.0000000  0.0000000 )       ( -0.2500000 )
                  (  0.0000000  1.0000000  0.0000000 )       ( -0.2500000 )


     point group O_h (m-3m) 
     there are 10 classes
     the character table:

       E     8C3   3C2   6C4   6C2'  i     8S6   3s_h  6S4   6s_d 
A_1g   1.00  1.00  1.00  1.00  1.00  1.00  1.00  1.00  1.00  1.00
A_2g   1.00  1.00  1.00 -1.00 -1.00  1.00  1.00  1.00 -1.00 -1.00
E_g    2.00 -1.00  2.00  0.00  0.00  2.00 -1.00  2.00  0.00  0.00
T_1g   3.00  0.00 -1.00  1.00 -1.00  3.00  0.00 -1.00  1.00 -1.00
T_2g   3.00  0.00 -1.00 -1.00  1.00  3.00  0.00 -1.00 -1.00  1.00
A_1u   1.00  1.00  1.00  1.00  1.00 -1.00 -1.00 -1.00 -1.00 -1.00
A_2u   1.00  1.00  1.00 -1.00 -1.00 -1.00 -1.00 -1.00  1.00  1.00
E_u    2.00 -1.00  2.00  0.00  0.00 -2.00  1.00 -2.00  0.00  0.00
T_1u   3.00  0.00 -1.00  1.00 -1.00 -3.00  0.00  1.00 -1.00  1.00
T_2u   3.00  0.00 -1.00 -1.00  1.00 -3.00  0.00  1.00  1.00 -1.00

     the symmetry operations in each class and the name of the first element:

     E        1
          identity                                               
     8C3     17   19   20   18   24   21   22   23
          120 deg rotation - cart. axis [-1,-1,-1]               
     3C2      2    4    3
          180 deg rotation - cart. axis [0,0,1]                  
     6C4      7    8   15   16   12   11
           90 deg rotation - cart. axis [0,0,-1]                 
     6C2'     5    6   14   13   10    9
          180 deg rotation - cart. axis [1,1,0]                  
     i       25
          inversion                                              
     8S6     41   43   44   42   48   45   46   47
          inv. 120 deg rotation - cart. axis [-1,-1,-1]          
     3s_h    26   28   27
          inv. 180 deg rotation - cart. axis [0,0,1]             
     6S4     31   32   39   40   36   35
          inv.  90 deg rotation - cart. axis [0,0,-1]            
     6s_d    29   30   38   37   34   33
          inv. 180 deg rotation - cart. axis [1,1,0]             

   Cartesian axes

     site n.     atom                  positions (alat units)
         1           Si  tau(   1) = (   0.0000000   0.0000000   0.0000000  )
         2           Si  tau(   2) = (  -0.2500000   0.2500000   0.2500000  )

   Crystallographic axes

     site n.     atom                  positions (cryst. coord.)
         1           Si  tau(   1) = (  0.0000000  0.0000000  0.0000000  )
         2           Si  tau(   2) = (  0.2500000  0.2500000  0.2500000  )

     number of k points=    72
                       cart. coord. in units 2pi/alat
        k(    1) = (   0.0000000   0.0000000   0.0000000), wk =   0.0011574
        k(    2) = (  -0.0833333   0.0833333  -0.0833333), wk =   0.0092593
        k(    3) = (  -0.1666667   0.1666667  -0.1666667), wk =   0.0092593
        k(    4) = (  -0.2500000   0.2500000  -0.2500000), wk =   0.0092593
        k(    5) = (  -0.3333333   0.3333333  -0.3333333), wk =   0.0092593
        k(    6) = (  -0.4166667   0.4166667  -0.4166667), wk =   0.0092593
        k(    7) = (   0.5000000  -0.5000000   0.5000000), wk =   0.0046296
        k(    8) = (   0.0000000   0.1666667   0.0000000), wk =   0.0069444
        k(    9) = (  -0.0833333   0.2500000  -0.0833333), wk =   0.0277778
        k(   10) = (  -0.1666667   0.3333333  -0.1666667), wk =   0.0277778
        k(   11) = (  -0.2500000   0.4166667  -0.2500000), wk =   0.0277778
        k(   12) = (  -0.3333333   0.5000000  -0.3333333), wk =   0.0277778
        k(   13) = (   0.5833333  -0.4166667   0.5833333), wk =   0.0277778
        k(   14) = (   0.5000000  -0.3333333   0.5000000), wk =   0.0277778
        k(   15) = (   0.4166667  -0.2500000   0.4166667), wk =   0.0277778
        k(   16) = (   0.3333333  -0.1666667   0.3333333), wk =   0.0277778
        k(   17) = (   0.2500000  -0.0833333   0.2500000), wk =   0.0277778
        k(   18) = (   0.1666667  -0.0000000   0.1666667), wk =   0.0138889
        k(   19) = (   0.0000000   0.3333333   0.0000000), wk =   0.0069444
        k(   20) = (  -0.0833333   0.4166667  -0.0833333), wk =   0.0277778
        k(   21) = (  -0.1666667   0.5000000  -0.1666667), wk =   0.0277778
        k(   22) = (  -0.2500000   0.5833333  -0.2500000), wk =   0.0277778
        k(   23) = (   0.6666667  -0.3333333   0.6666667), wk =   0.0277778
        k(   24) = (   0.5833333  -0.2500000   0.5833333), wk =   0.0277778
        k(   25) = (   0.5000000  -0.1666667   0.5000000), wk =   0.0277778
        k(   26) = (   0.4166667  -0.0833333   0.4166667), wk =   0.0277778
        k(   27) = (   0.3333333   0.0000000   0.3333333), wk =   0.0138889
        k(   28) = (   0.0000000   0.5000000   0.0000000), wk =   0.0069444
        k(   29) = (  -0.0833333   0.5833333  -0.0833333), wk =   0.0277778
        k(   30) = (  -0.1666667   0.6666667  -0.1666667), wk =   0.0277778
        k(   31) = (   0.7500000  -0.2500000   0.7500000), wk =   0.0277778
        k(   32) = (   0.6666667  -0.1666667   0.6666667), wk =   0.0277778
        k(   33) = (   0.5833333  -0.0833333   0.5833333), wk =   0.0277778
        k(   34) = (   0.5000000   0.0000000   0.5000000), wk =   0.0138889
        k(   35) = (   0.0000000   0.6666667   0.0000000), wk =   0.0069444
        k(   36) = (  -0.0833333   0.7500000  -0.0833333), wk =   0.0277778
        k(   37) = (   0.8333333  -0.1666667   0.8333333), wk =   0.0277778
        k(   38) = (   0.7500000  -0.0833333   0.7500000), wk =   0.0277778
        k(   39) = (   0.6666667  -0.0000000   0.6666667), wk =   0.0138889
        k(   40) = (   0.0000000   0.8333333   0.0000000), wk =   0.0069444
        k(   41) = (   0.9166667  -0.0833333   0.9166667), wk =   0.0277778
        k(   42) = (   0.8333333   0.0000000   0.8333333), wk =   0.0138889
        k(   43) = (   0.0000000  -1.0000000   0.0000000), wk =   0.0034722
        k(   44) = (  -0.1666667   0.3333333   0.0000000), wk =   0.0277778
        k(   45) = (  -0.2500000   0.4166667  -0.0833333), wk =   0.0555556
        k(   46) = (  -0.3333333   0.5000000  -0.1666667), wk =   0.0555556
        k(   47) = (   0.5833333  -0.4166667   0.7500000), wk =   0.0555556
        k(   48) = (   0.5000000  -0.3333333   0.6666667), wk =   0.0277778
        k(   49) = (  -0.1666667   0.5000000   0.0000000), wk =   0.0277778
        k(   50) = (  -0.2500000   0.5833333  -0.0833333), wk =   0.0555556
        k(   51) = (   0.6666667  -0.3333333   0.8333333), wk =   0.0555556
        k(   52) = (   0.5833333  -0.2500000   0.7500000), wk =   0.0555556
        k(   53) = (   0.5000000  -0.1666667   0.6666667), wk =   0.0555556
        k(   54) = (   0.4166667  -0.0833333   0.5833333), wk =   0.0555556
        k(   55) = (   0.3333333   0.0000000   0.5000000), wk =   0.0277778
        k(   56) = (  -0.1666667   0.6666667  -0.0000000), wk =   0.0277778
        k(   57) = (   0.7500000  -0.2500000   0.9166667), wk =   0.0555556
        k(   58) = (   0.6666667  -0.1666667   0.8333333), wk =   0.0555556
        k(   59) = (   0.5833333  -0.0833333   0.7500000), wk =   0.0555556
        k(   60) = (   0.5000000   0.0000000   0.6666667), wk =   0.0277778
        k(   61) = (   0.8333333  -0.1666667   1.0000000), wk =   0.0277778
        k(   62) = (   0.7500000  -0.0833333   0.9166667), wk =   0.0555556
        k(   63) = (   0.6666667   0.0000000   0.8333333), wk =   0.0277778
        k(   64) = (  -0.1666667  -1.0000000  -0.0000000), wk =   0.0138889
        k(   65) = (   0.6666667  -0.3333333   1.0000000), wk =   0.0277778
        k(   66) = (   0.5833333  -0.2500000   0.9166667), wk =   0.0555556
        k(   67) = (   0.5000000  -0.1666667   0.8333333), wk =   0.0277778
        k(   68) = (   0.6666667  -0.1666667   1.0000000), wk =   0.0277778
        k(   69) = (   0.5833333  -0.0833333   0.9166667), wk =   0.0555556
        k(   70) = (   0.5000000   0.0000000   0.8333333), wk =   0.0277778
        k(   71) = (  -0.3333333  -1.0000000   0.0000000), wk =   0.0138889
        k(   72) = (  -0.5000000  -1.0000000   0.0000000), wk =   0.0069444

                       cryst. coord.
        k(    1) = (   0.0000000   0.0000000   0.0000000), wk =   0.0011574
        k(    2) = (   0.0000000   0.0000000   0.0833333), wk =   0.0092593
        k(    3) = (   0.0000000   0.0000000   0.1666667), wk =   0.0092593
        k(    4) = (   0.0000000   0.0000000   0.2500000), wk =   0.0092593
        k(    5) = (   0.0000000   0.0000000   0.3333333), wk =   0.0092593
        k(    6) = (   0.0000000   0.0000000   0.4166667), wk =   0.0092593
        k(    7) = (   0.0000000   0.0000000  -0.5000000), wk =   0.0046296
        k(    8) = (   0.0000000   0.0833333   0.0833333), wk =   0.0069444
        k(    9) = (   0.0000000   0.0833333   0.1666667), wk =   0.0277778
        k(   10) = (   0.0000000   0.0833333   0.2500000), wk =   0.0277778
        k(   11) = (   0.0000000   0.0833333   0.3333333), wk =   0.0277778
        k(   12) = (   0.0000000   0.0833333   0.4166667), wk =   0.0277778
        k(   13) = (   0.0000000   0.0833333  -0.5000000), wk =   0.0277778
        k(   14) = (   0.0000000   0.0833333  -0.4166667), wk =   0.0277778
        k(   15) = (   0.0000000   0.0833333  -0.3333333), wk =   0.0277778
        k(   16) = (   0.0000000   0.0833333  -0.2500000), wk =   0.0277778
        k(   17) = (   0.0000000   0.0833333  -0.1666667), wk =   0.0277778
        k(   18) = (   0.0000000   0.0833333  -0.0833333), wk =   0.0138889
        k(   19) = (   0.0000000   0.1666667   0.1666667), wk =   0.0069444
        k(   20) = (   0.0000000   0.1666667   0.2500000), wk =   0.0277778
        k(   21) = (   0.0000000   0.1666667   0.3333333), wk =   0.0277778
        k(   22) = (   0.0000000   0.1666667   0.4166667), wk =   0.0277778
        k(   23) = (   0.0000000   0.1666667  -0.5000000), wk =   0.0277778
        k(   24) = (   0.0000000   0.1666667  -0.4166667), wk =   0.0277778
        k(   25) = (   0.0000000   0.1666667  -0.3333333), wk =   0.0277778
        k(   26) = (   0.0000000   0.1666667  -0.2500000), wk =   0.0277778
        k(   27) = (   0.0000000   0.1666667  -0.1666667), wk =   0.0138889
        k(   28) = (   0.0000000   0.2500000   0.2500000), wk =   0.0069444
        k(   29) = (   0.0000000   0.2500000   0.3333333), wk =   0.0277778
        k(   30) = (   0.0000000   0.2500000   0.4166667), wk =   0.0277778
        k(   31) = (   0.0000000   0.2500000  -0.5000000), wk =   0.0277778
        k(   32) = (   0.0000000   0.2500000  -0.4166667), wk =   0.0277778
        k(   33) = (   0.0000000   0.2500000  -0.3333333), wk =   0.0277778
        k(   34) = (   0.0000000   0.2500000  -0.2500000), wk =   0.0138889
        k(   35) = (   0.0000000   0.3333333   0.3333333), wk =   0.0069444
        k(   36) = (   0.0000000   0.3333333   0.4166667), wk =   0.0277778
        k(   37) = (   0.0000000   0.3333333  -0.5000000), wk =   0.0277778
        k(   38) = (   0.0000000   0.3333333  -0.4166667), wk =   0.0277778
        k(   39) = (   0.0000000   0.3333333  -0.3333333), wk =   0.0138889
        k(   40) = (   0.0000000   0.4166667   0.4166667), wk =   0.0069444
        k(   41) = (   0.0000000   0.4166667  -0.5000000), wk =   0.0277778
        k(   42) = (   0.0000000   0.4166667  -0.4166667), wk =   0.0138889
        k(   43) = (   0.0000000  -0.5000000  -0.5000000), wk =   0.0034722
        k(   44) = (   0.0833333   0.1666667   0.2500000), wk =   0.0277778
        k(   45) = (   0.0833333   0.1666667   0.3333333), wk =   0.0555556
        k(   46) = (   0.0833333   0.1666667   0.4166667), wk =   0.0555556
        k(   47) = (   0.0833333   0.1666667  -0.5000000), wk =   0.0555556
        k(   48) = (   0.0833333   0.1666667  -0.4166667), wk =   0.0277778
        k(   49) = (   0.0833333   0.2500000   0.3333333), wk =   0.0277778
        k(   50) = (   0.0833333   0.2500000   0.4166667), wk =   0.0555556
        k(   51) = (   0.0833333   0.2500000  -0.5000000), wk =   0.0555556
        k(   52) = (   0.0833333   0.2500000  -0.4166667), wk =   0.0555556
        k(   53) = (   0.0833333   0.2500000  -0.3333333), wk =   0.0555556
        k(   54) = (   0.0833333   0.2500000  -0.2500000), wk =   0.0555556
        k(   55) = (   0.0833333   0.2500000  -0.1666667), wk =   0.0277778
        k(   56) = (   0.0833333   0.3333333   0.4166667), wk =   0.0277778
        k(   57) = (   0.0833333   0.3333333  -0.5000000), wk =   0.0555556
        k(   58) = (   0.0833333   0.3333333  -0.4166667), wk =   0.0555556
        k(   59) = (   0.0833333   0.3333333  -0.3333333), wk =   0.0555556
        k(   60) = (   0.0833333   0.3333333  -0.2500000), wk =   0.0277778
        k(   61) = (   0.0833333   0.4166667  -0.5000000), wk =   0.0277778
        k(   62) = (   0.0833333   0.4166667  -0.4166667), wk =   0.0555556
        k(   63) = (   0.0833333   0.4166667  -0.3333333), wk =   0.0277778
        k(   64) = (   0.0833333  -0.5000000  -0.4166667), wk =   0.0138889
        k(   65) = (   0.1666667   0.3333333  -0.5000000), wk =   0.0277778
        k(   66) = (   0.1666667   0.3333333  -0.4166667), wk =   0.0555556
        k(   67) = (   0.1666667   0.3333333  -0.3333333), wk =   0.0277778
        k(   68) = (   0.1666667   0.4166667  -0.4166667), wk =   0.0277778
        k(   69) = (   0.1666667   0.4166667  -0.3333333), wk =   0.0555556
        k(   70) = (   0.1666667   0.4166667  -0.2500000), wk =   0.0277778
        k(   71) = (   0.1666667  -0.5000000  -0.3333333), wk =   0.0138889
        k(   72) = (   0.2500000  -0.5000000  -0.2500000), wk =   0.0069444

     Dense  grid:     9257 G-vectors     FFT dimensions: (  32,  32,  32)

     Dynamical RAM for                 wfc:       0.09 MB

     Dynamical RAM for     wfc (w. buffer):       6.43 MB

     Dynamical RAM for           str. fact:       0.14 MB

     Dynamical RAM for           local pot:       0.00 MB

     Dynamical RAM for          nlocal pot:       0.63 MB

     Dynamical RAM for                qrad:       1.02 MB

     Dynamical RAM for          rho,v,vnew:       1.17 MB

     Dynamical RAM for               rhoin:       0.39 MB

     Dynamical RAM for            rho*nmix:       2.26 MB

     Dynamical RAM for           G-vectors:       0.60 MB

     Dynamical RAM for          h,s,v(r/c):       0.00 MB

     Dynamical RAM for          <psi|beta>:       0.00 MB

     Dynamical RAM for                 psi:       0.18 MB

     Dynamical RAM for                hpsi:       0.18 MB

     Dynamical RAM for      wfcinit/wfcrot:       0.28 MB

     Estimated static dynamical RAM per process >      11.92 MB

     Estimated max dynamical RAM per process >      14.54 MB

     Initial potential from superposition of free atoms

     starting charge       7.9988, renormalised to       8.0000
     Starting wfcs are    8 randomized atomic wfcs

     total cpu time spent up to now is        0.5 secs

     Self-consistent Calculation

     iteration #  1     ecut=    40.00 Ry     beta= 0.70
     Davidson diagonalization with overlap

---- Real-time Memory Report at c_bands before calling an iterative solver
            44 MiB given to the printing process from OS
             0 MiB allocation reported by mallinfo(arena+hblkhd)
           204 MiB available memory on the node where the printing process lives
------------------
     ethr =  1.00E-02,  avg # of iterations =  3.2

     Threshold (ethr) on eigenvalues was too large:
     Diagonalizing with lowered threshold

     Davidson diagonalization with overlap

---- Real-time Memory Report at c_bands before calling an iterative solver
            44 MiB given to the printing process from OS
             0 MiB allocation reported by mallinfo(arena+hblkhd)
           216 MiB available memory on the node where the printing process lives
------------------
     ethr =  6.06E-04,  avg # of iterations =  1.9

     total cpu time spent up to now is        2.0 secs

     total energy              =     -16.92253190 Ry
     estimated scf accuracy    <       0.05426554 Ry

     iteration #  2     ecut=    40.00 Ry     beta= 0.70
     Davidson diagonalization with overlap

---- Real-time Memory Report at c_bands before calling an iterative solver
            48 MiB given to the printing process from OS
             0 MiB allocation reported by mallinfo(arena+hblkhd)
           217 MiB available memory on the node where the printing process lives
------------------
     ethr =  6.78E-04,  avg # of iterations =  1.0

     total cpu time spent up to now is        2.7 secs

     total energy              =     -16.92441707 Ry
     estimated scf accuracy    <       0.00257455 Ry

     iteration #  3     ecut=    40.00 Ry     beta= 0.70
     Davidson diagonalization with overlap

---- Real-time Memory Report at c_bands before calling an iterative solver
            49 MiB given to the printing process from OS
             0 MiB allocation reported by mallinfo(arena+hblkhd)
           229 MiB available memory on the node where the printing process lives
------------------
     ethr =  3.22E-05,  avg # of iterations =  4.4

     total cpu time spent up to now is        3.6 secs

     total energy              =     -16.92483031 Ry
     estimated scf accuracy    <       0.00005267 Ry

     iteration #  4     ecut=    40.00 Ry     beta= 0.70
     Davidson diagonalization with overlap

---- Real-time Memory Report at c_bands before calling an iterative solver
            49 MiB given to the printing process from OS
             0 MiB allocation reported by mallinfo(arena+hblkhd)
           229 MiB available memory on the node where the printing process lives
------------------
     c_bands:  1 eigenvalues not converged
     c_bands:  1 eigenvalues not converged
     ethr =  6.58E-07,  avg # of iterations =  5.2

     total cpu time spent up to now is        4.6 secs

     total energy              =     -16.92486411 Ry
     estimated scf accuracy    <       0.00000145 Ry

     iteration #  5     ecut=    40.00 Ry     beta= 0.70
     Davidson diagonalization with overlap

---- Real-time Memory Report at c_bands before calling an iterative solver
            50 MiB given to the printing process from OS
             0 MiB allocation reported by mallinfo(arena+hblkhd)
           228 MiB available memory on the node where the printing process lives
------------------
     c_bands:  1 eigenvalues not converged
     ethr =  1.81E-08,  avg # of iterations =  4.2

     total cpu time spent up to now is        5.6 secs

     total energy              =     -16.92486517 Ry
     estimated scf accuracy    <       0.00000009 Ry

     iteration #  6     ecut=    40.00 Ry     beta= 0.70
     Davidson diagonalization with overlap

---- Real-time Memory Report at c_bands before calling an iterative solver
            50 MiB given to the printing process from OS
             0 MiB allocation reported by mallinfo(arena+hblkhd)
           230 MiB available memory on the node where the printing process lives
------------------
     ethr =  1.16E-09,  avg # of iterations =  2.8

     total cpu time spent up to now is        6.4 secs

     End of self-consistent calculation

          k = 0.0000 0.0000 0.0000 (  1139 PWs)   bands (ev):

    -5.7342   6.2302   6.2302   6.2302   8.7864

     occupation numbers 
     1.0000   1.0000   1.0000   1.0000   0.0000

          k =-0.0833 0.0833-0.0833 (  1185 PWs)   bands (ev):

    -5.6432   5.3690   6.0860   6.0860   8.8308

     occupation numbers 
     1.0000   1.0000   1.0000   1.0000   0.0000

          k =-0.1667 0.1667-0.1667 (  1167 PWs)   bands (ev):

    -5.3732   3.8454   5.7786   5.7786   8.5716

     occupation numbers 
     1.0000   1.0000   1.0000   1.0000   0.0000

          k =-0.2500 0.2500-0.2500 (  1164 PWs)   bands (ev):

    -4.9349   2.2989   5.4687   5.4687   8.2494

     occupation numbers 
     1.0000   1.0000   1.0000   1.0000   0.0000

          k =-0.3333 0.3333-0.3333 (  1149 PWs)   bands (ev):

    -4.3581   0.8917   5.2277   5.2277   7.9837

     occupation numbers 
     1.0000   1.0000   1.0000   1.0000   0.0000

          k =-0.4167 0.4167-0.4167 (  1155 PWs)   bands (ev):

    -3.7380  -0.2379   5.0791   5.0791   7.8154

     occupation numbers 
     1.0000   1.0000   1.0000   1.0000   0.0000

          k = 0.5000-0.5000 0.5000 (  1158 PWs)   bands (ev):

    -3.4041  -0.7431   5.0292   5.0292   7.7583

     occupation numbers 
     1.0000   1.0000   1.0000   1.0000   0.0000

          k = 0.0000 0.1667 0.0000 (  1179 PWs)   bands (ev):

    -5.6127   5.5337   5.7991   5.7991   8.5132

     occupation numbers 
     1.0000   1.0000   1.0000   1.0000   0.0000

          k =-0.0833 0.2500-0.0833 (  1164 PWs)   bands (ev):

    -5.4019   4.2987   5.4346   5.6252   8.5365

     occupation numbers 
     1.0000   1.0000   1.0000   1.0000   0.0000

          k =-0.1667 0.3333-0.1667 (  1155 PWs)   bands (ev):

    -5.0181   2.7963   5.1211   5.3012   8.6629

     occupation numbers 
     1.0000   1.0000   1.0000   1.0000   0.0000

          k =-0.2500 0.4167-0.2500 (  1151 PWs)   bands (ev):

    -4.4824   1.3597   4.9109   4.9476   8.5180

     occupation numbers 
     1.0000   1.0000   1.0000   1.0000   0.0000

          k =-0.3333 0.5000-0.3333 (  1153 PWs)   bands (ev):

    -3.8571   0.1296   4.6510   4.8210   8.3518

     occupation numbers 
     1.0000   1.0000   1.0000   1.0000   0.0000

          k = 0.5833-0.4167 0.5833 (  1160 PWs)   bands (ev):

    -3.3667  -0.6400   4.4459   4.8519   8.2711

     occupation numbers 
     1.0000   1.0000   1.0000   1.0000   0.0000

          k = 0.5000-0.3333 0.5000 (  1156 PWs)   bands (ev):

    -3.4875  -0.4624   4.3505   4.9951   8.2979

     occupation numbers 
     1.0000   1.0000   1.0000   1.0000   0.0000

          k = 0.4167-0.2500 0.4167 (  1147 PWs)   bands (ev):

    -4.0690   0.5097   4.3778   5.2350   8.4307

     occupation numbers 
     1.0000   1.0000   1.0000   1.0000   0.0000

          k = 0.3333-0.1667 0.3333 (  1151 PWs)   bands (ev):

    -4.6766   1.8242   4.5377   5.5455   8.6564

     occupation numbers 
     1.0000   1.0000   1.0000   1.0000   0.0000

          k = 0.2500-0.0833 0.2500 (  1160 PWs)   bands (ev):

    -5.1651   3.2831   4.8420   5.8756   8.9386

     occupation numbers 
     1.0000   1.0000   1.0000   1.0000   0.0000

          k = 0.1667-0.0000 0.1667 (  1163 PWs)   bands (ev):

    -5.4923   4.6371   5.3649   6.1117   9.0376

     occupation numbers 
     1.0000   1.0000   1.0000   1.0000   0.0000

          k = 0.0000 0.3333 0.0000 (  1162 PWs)   bands (ev):

    -5.2503   4.1871   5.0352   5.0352   7.9304

     occupation numbers 
     1.0000   1.0000   1.0000   1.0000   0.0000

          k =-0.0833 0.4167-0.0833 (  1158 PWs)   bands (ev):

    -4.9233   3.0997   4.6874   4.7005   7.9510

     occupation numbers 
     1.0000   1.0000   1.0000   1.0000   0.0000

          k =-0.1667 0.5000-0.1667 (  1151 PWs)   bands (ev):

    -4.4354   1.7890   4.2345   4.4817   8.1921

     occupation numbers 
     1.0000   1.0000   1.0000   1.0000   0.0000

          k =-0.2500 0.5833-0.2500 (  1152 PWs)   bands (ev):

    -3.8279   0.5544   3.7950   4.3976   8.2376

     occupation numbers 
     1.0000   1.0000   1.0000   1.0000   0.0000

          k = 0.6667-0.3333 0.6667 (  1153 PWs)   bands (ev):

    -3.2447  -0.3796   3.4503   4.4514   8.2688

     occupation numbers 
     1.0000   1.0000   1.0000   1.0000   0.0000

          k = 0.5833-0.2500 0.5833 (  1157 PWs)   bands (ev):

    -3.1304  -0.5393   3.2363   4.6354   8.4129

     occupation numbers 
     1.0000   1.0000   1.0000   1.0000   0.0000

          k = 0.5000-0.1667 0.5000 (  1156 PWs)   bands (ev):

    -3.6294   0.2194   3.1799   4.9306   8.6768

     occupation numbers 
     1.0000   1.0000   1.0000   1.0000   0.0000

          k = 0.4167-0.0833 0.4167 (  1156 PWs)   bands (ev):

    -4.2535   1.3661   3.3246   5.2991   9.0071

     occupation numbers 
     1.0000   1.0000   1.0000   1.0000   0.0000

          k = 0.3333 0.0000 0.3333 (  1147 PWs)   bands (ev):

    -4.7852   2.5080   3.8154   5.6637   9.2614

     occupation numbers 
     1.0000   1.0000   1.0000   1.0000   0.0000

          k = 0.0000 0.5000 0.0000 (  1174 PWs)   bands (ev):

    -4.6527   2.7075   4.3379   4.3379   7.3572

     occupation numbers 
     1.0000   1.0000   1.0000   1.0000   0.0000

          k =-0.0833 0.5833-0.0833 (  1154 PWs)   bands (ev):

    -4.2163   1.7973   3.8723   4.0913   7.4415

     occupation numbers 
     1.0000   1.0000   1.0000   1.0000   0.0000

          k =-0.1667 0.6667-0.1667 (  1153 PWs)   bands (ev):

    -3.6413   0.7685   3.2401   3.9840   7.6604

     occupation numbers 
     1.0000   1.0000   1.0000   1.0000   0.0000

          k = 0.7500-0.2500 0.7500 (  1156 PWs)   bands (ev):

    -3.0175  -0.1574   2.6935   4.0226   7.7485

     occupation numbers 
     1.0000   1.0000   1.0000   1.0000   0.0000

          k = 0.6667-0.1667 0.6667 (  1151 PWs)   bands (ev):

    -2.6939  -0.5718   2.3305   4.2027   7.9277

     occupation numbers 
     1.0000   1.0000   1.0000   1.0000   0.0000

          k = 0.5833-0.0833 0.5833 (  1152 PWs)   bands (ev):

    -3.0697  -0.0780   2.2112   4.5076   8.2513

     occupation numbers 
     1.0000   1.0000   1.0000   1.0000   0.0000

          k = 0.5000 0.0000 0.5000 (  1159 PWs)   bands (ev):

    -3.6914   0.7447   2.4754   4.9001   8.6758

     occupation numbers 
     1.0000   1.0000   1.0000   1.0000   0.0000

          k = 0.0000 0.6667 0.0000 (  1150 PWs)   bands (ev):

    -3.8308   1.2135   3.8100   3.8100   6.9551

     occupation numbers 
     1.0000   1.0000   1.0000   1.0000   0.0000

          k =-0.0833 0.7500-0.0833 (  1152 PWs)   bands (ev):

    -3.2963   0.4277   3.3241   3.6673   7.1179

     occupation numbers 
     1.0000   1.0000   1.0000   1.0000   0.0000

          k = 0.8333-0.1667 0.8333 (  1149 PWs)   bands (ev):

    -2.6675  -0.3407   2.5961   3.6734   7.2923

     occupation numbers 
     1.0000   1.0000   1.0000   1.0000   0.0000

          k = 0.7500-0.0833 0.7500 (  1149 PWs)   bands (ev):

    -2.1989  -0.8316   2.0175   3.8272   7.4690

     occupation numbers 
     1.0000   1.0000   1.0000   1.0000   0.0000

          k = 0.6667-0.0000 0.6667 (  1141 PWs)   bands (ev):

    -2.4717  -0.5454   1.8156   4.1158   7.7957

     occupation numbers 
     1.0000   1.0000   1.0000   1.0000   0.0000

          k = 0.0000 0.8333 0.0000 (  1162 PWs)   bands (ev):

    -2.8018  -0.2373   3.4848   3.4848   6.8005

     occupation numbers 
     1.0000   1.0000   1.0000   1.0000   0.0000

          k = 0.9167-0.0833 0.9167 (  1150 PWs)   bands (ev):

    -2.1884  -0.9251   3.0532   3.4511   7.0023

     occupation numbers 
     1.0000   1.0000   1.0000   1.0000   0.0000

          k = 0.8333 0.0000 0.8333 (  1152 PWs)   bands (ev):

    -1.7329  -1.3290   2.3826   3.5682   7.1621

     occupation numbers 
     1.0000   1.0000   1.0000   1.0000   0.0000

          k = 0.0000-1.0000 0.0000 (  1162 PWs)   bands (ev):

    -1.5916  -1.5916   3.3752   3.3752   6.9393

     occupation numbers 
     1.0000   1.0000   1.0000   1.0000   0.0000

          k =-0.1667 0.3333 0.0000 (  1157 PWs)   bands (ev):

    -5.1333   3.4985   4.5940   5.5222   8.5639

     occupation numbers 
     1.0000   1.0000   1.0000   1.0000   0.0000

          k =-0.2500 0.4167-0.0833 (  1148 PWs)   bands (ev):

    -4.6971   2.2570   4.0614   5.2467   8.8454

     occupation numbers 
     1.0000   1.0000   1.0000   1.0000   0.0000

          k =-0.3333 0.5000-0.1667 (  1151 PWs)   bands (ev):

    -4.1221   0.9552   3.7918   4.9189   8.8859

     occupation numbers 
     1.0000   1.0000   1.0000   1.0000   0.0000

          k = 0.5833-0.4167 0.7500 (  1151 PWs)   bands (ev):

    -3.5007  -0.1345   3.6644   4.6722   8.8293

     occupation numbers 
     1.0000   1.0000   1.0000   1.0000   0.0000

          k = 0.5000-0.3333 0.6667 (  1152 PWs)   bands (ev):

    -3.1625  -0.6327   3.6288   4.5804   8.8073

     occupation numbers 
     1.0000   1.0000   1.0000   1.0000   0.0000

          k =-0.1667 0.5000 0.0000 (  1156 PWs)   bands (ev):

    -4.5423   2.3047   3.8982   4.6010   8.0174

     occupation numbers 
     1.0000   1.0000   1.0000   1.0000   0.0000

          k =-0.2500 0.5833-0.0833 (  1152 PWs)   bands (ev):

    -4.0099   1.2542   3.3607   4.3123   8.3510

     occupation numbers 
     1.0000   1.0000   1.0000   1.0000   0.0000

          k = 0.6667-0.3333 0.8333 (  1153 PWs)   bands (ev):

    -3.3847   0.1998   3.0040   4.1014   8.4725

     occupation numbers 
     1.0000   1.0000   1.0000   1.0000   0.0000

          k = 0.5833-0.2500 0.7500 (  1152 PWs)   bands (ev):

    -2.8881  -0.5066   2.7582   4.0833   8.6003

     occupation numbers 
     1.0000   1.0000   1.0000   1.0000   0.0000

          k = 0.5000-0.1667 0.6667 (  1152 PWs)   bands (ev):

    -3.0238  -0.3194   2.6399   4.2561   8.8494

     occupation numbers 
     1.0000   1.0000   1.0000   1.0000   0.0000

          k = 0.4167-0.0833 0.5833 (  1154 PWs)   bands (ev):

    -3.6137   0.5576   2.7141   4.5733   9.2074

     occupation numbers 
     1.0000   1.0000   1.0000   1.0000   0.0000

          k = 0.3333 0.0000 0.5000 (  1157 PWs)   bands (ev):

    -4.2161   1.5370   3.1292   4.9555   9.4420

     occupation numbers 
     1.0000   1.0000   1.0000   1.0000   0.0000

          k =-0.1667 0.6667-0.0000 (  1154 PWs)   bands (ev):

    -3.7322   1.0383   3.3883   3.8162   7.6206

     occupation numbers 
     1.0000   1.0000   1.0000   1.0000   0.0000

          k = 0.7500-0.2500 0.9167 (  1156 PWs)   bands (ev):

    -3.1268   0.2029   2.8005   3.5991   7.9555

     occupation numbers 
     1.0000   1.0000   1.0000   1.0000   0.0000

          k = 0.6667-0.1667 0.8333 (  1154 PWs)   bands (ev):

    -2.5377  -0.5118   2.2794   3.6070   8.1095

     occupation numbers 
     1.0000   1.0000   1.0000   1.0000   0.0000

          k = 0.5833-0.0833 0.7500 (  1157 PWs)   bands (ev):

    -2.4667  -0.5827   1.9907   3.8057   8.3660

     occupation numbers 
     1.0000   1.0000   1.0000   1.0000   0.0000

          k = 0.5000 0.0000 0.6667 (  1161 PWs)   bands (ev):

    -3.0042   0.0077   2.0775   4.1510   8.7573

     occupation numbers 
     1.0000   1.0000   1.0000   1.0000   0.0000

          k = 0.8333-0.1667 1.0000 (  1159 PWs)   bands (ev):

    -2.7244  -0.2738   3.1045   3.3010   7.4506

     occupation numbers 
     1.0000   1.0000   1.0000   1.0000   0.0000

          k = 0.7500-0.0833 0.9167 (  1153 PWs)   bands (ev):

    -2.0957  -0.9167   2.4760   3.2571   7.7430

     occupation numbers 
     1.0000   1.0000   1.0000   1.0000   0.0000

          k = 0.6667 0.0000 0.8333 (  1151 PWs)   bands (ev):

    -1.9411  -1.0301   1.9780   3.4543   7.9804

     occupation numbers 
     1.0000   1.0000   1.0000   1.0000   0.0000

          k =-0.1667-1.0000-0.0000 (  1148 PWs)   bands (ev):

    -1.5536  -1.5536   3.0691   3.0691   7.5532

     occupation numbers 
     1.0000   1.0000   1.0000   1.0000   0.0000

          k = 0.6667-0.3333 1.0000 (  1151 PWs)   bands (ev):

    -3.4459   0.5808   2.6585   3.9331   9.0814

     occupation numbers 
     1.0000   1.0000   1.0000   1.0000   0.0000

          k = 0.5833-0.2500 0.9167 (  1152 PWs)   bands (ev):

    -2.8220  -0.1890   2.3114   3.5960   9.4567

     occupation numbers 
     1.0000   1.0000   1.0000   1.0000   0.0000

          k = 0.5000-0.1667 0.8333 (  1152 PWs)   bands (ev):

    -2.4617  -0.6181   2.2184   3.4665   9.7831

     occupation numbers 
     1.0000   1.0000   1.0000   1.0000   0.0000

          k = 0.6667-0.1667 1.0000 (  1155 PWs)   bands (ev):

    -2.5107  -0.4180   2.4598   3.0785   8.9115

     occupation numbers 
     1.0000   1.0000   1.0000   1.0000   0.0000

          k = 0.5833-0.0833 0.9167 (  1158 PWs)   bands (ev):

    -1.9877  -0.9245   2.1444   2.9243   9.2533

     occupation numbers 
     1.0000   1.0000   1.0000   1.0000   0.0000

          k = 0.5000 0.0000 0.8333 (  1153 PWs)   bands (ev):

    -2.2192  -0.6946   2.0195   3.1493   9.5552

     occupation numbers 
     1.0000   1.0000   1.0000   1.0000   0.0000

          k =-0.3333-1.0000 0.0000 (  1154 PWs)   bands (ev):

    -1.4720  -1.4720   2.5834   2.5834   8.9785

     occupation numbers 
     1.0000   1.0000   1.0000   1.0000   0.0000

          k =-0.5000-1.0000 0.0000 (  1144 PWs)   bands (ev):

    -1.4280  -1.4280   2.3757   2.3757  10.5034

     occupation numbers 
     1.0000   1.0000   1.0000   1.0000   0.0000

     highest occupied, lowest unoccupied level (ev):     6.2302    6.8005

!    total energy              =     -16.92486521 Ry
     estimated scf accuracy    <          1.4E-10 Ry

     The total energy is the sum of the following terms:
     one-electron contribution =       4.96112594 Ry
     hartree contribution      =       1.09517980 Ry
     xc contribution           =      -6.18384318 Ry
     ewald contribution        =     -16.79732777 Ry

     convergence has been achieved in   6 iterations

     Writing all to output data dir ./out/si.save/
 
     init_run     :      0.37s CPU      0.39s WALL (       1 calls)
     electrons    :      5.89s CPU      5.97s WALL (       1 calls)

     Called by init_run:
     wfcinit      :      0.33s CPU      0.34s WALL (       1 calls)
     wfcinit:atom :      0.01s CPU      0.01s WALL (      72 calls)
     wfcinit:wfcr :      0.29s CPU      0.30s WALL (      72 calls)
     potinit      :      0.01s CPU      0.01s WALL (       1 calls)
     hinit0       :      0.02s CPU      0.02s WALL (       1 calls)

     Called by electrons:
     c_bands      :      5.12s CPU      5.20s WALL (       7 calls)
     sum_band     :      0.71s CPU      0.71s WALL (       7 calls)
     v_of_rho     :      0.06s CPU      0.06s WALL (       7 calls)
     v_h          :      0.00s CPU      0.00s WALL (       7 calls)
     v_xc         :      0.06s CPU      0.06s WALL (       7 calls)
     mix_rho      :      0.01s CPU      0.01s WALL (       7 calls)

     Called by c_bands:
     init_us_2    :      0.22s CPU      0.23s WALL (    1080 calls)
     init_us_2:cp :      0.22s CPU      0.23s WALL (    1080 calls)
     cegterg      :      4.01s CPU      4.06s WALL (     504 calls)

     Called by sum_band:
     sum_band:wei :      0.00s CPU      0.00s WALL (       7 calls)
     sum_band:loo :      0.70s CPU      0.70s WALL (       7 calls)
     sum_band:buf :      0.01s CPU      0.01s WALL (     504 calls)
     sum_band:ini :      0.11s CPU      0.11s WALL (     504 calls)

     Called by *egterg:
     cdiaghg      :      0.10s CPU      0.10s WALL (    2068 calls)
     cegterg:over :      0.06s CPU      0.06s WALL (    1636 calls)
     cegterg:upda :      0.05s CPU      0.05s WALL (    1636 calls)
     cegterg:last :      0.06s CPU      0.06s WALL (    1222 calls)
     h_psi        :      3.95s CPU      4.01s WALL (    2212 calls)
     g_psi        :      0.01s CPU      0.01s WALL (    1636 calls)

     Called by h_psi:
     h_psi:calbec :      0.15s CPU      0.15s WALL (    2212 calls)
     vloc_psi     :      3.65s CPU      3.70s WALL (    2212 calls)
     add_vuspsi   :      0.13s CPU      0.13s WALL (    2212 calls)

     General routines
     calbec       :      0.15s CPU      0.15s WALL (    2212 calls)
     fft          :      0.01s CPU      0.01s WALL (      71 calls)
     ffts         :      0.00s CPU      0.00s WALL (       7 calls)
     fftw         :      3.77s CPU      3.82s WALL (   18740 calls)
 
     Parallel routines
 
     PWSCF        :      6.32s CPU      6.47s WALL

 
   This run was terminated on:  12: 1:49   1Nov2022            

=------------------------------------------------------------------------------=
   JOB DONE.
=------------------------------------------------------------------------------=
