File written on 17Oct2022 at 16:41:24 

calc_only_A  :  F

begin real_lattice
  -1.6247250  -2.8141062   0.0000000
  -1.6247250   2.8141062   0.0000000
   0.0000000   0.0000000  -5.2057400
end real_lattice

begin recip_lattice
  -1.9336150  -1.1163731   0.0000000
  -1.9336150   1.1163731   0.0000000
   0.0000000   0.0000000  -1.2069726
end recip_lattice

begin kpoints
    64
    0.00000000    0.00000000    0.00000000
    0.00000000    0.00000000    0.25000000
    0.00000000    0.00000000   -0.50000000
    0.00000000    0.00000000   -0.25000000
    0.00000000    0.25000000    0.00000000
    0.00000000    0.25000000    0.25000000
    0.00000000    0.25000000   -0.50000000
    0.00000000    0.25000000   -0.25000000
    0.00000000   -0.50000000    0.00000000
    0.00000000   -0.50000000    0.25000000
    0.00000000   -0.50000000   -0.50000000
    0.00000000   -0.50000000   -0.25000000
    0.00000000   -0.25000000    0.00000000
    0.00000000   -0.25000000    0.25000000
    0.00000000   -0.25000000   -0.50000000
    0.00000000   -0.25000000   -0.25000000
    0.25000000    0.00000000    0.00000000
    0.25000000    0.00000000    0.25000000
    0.25000000    0.00000000   -0.50000000
    0.25000000    0.00000000   -0.25000000
    0.25000000    0.25000000    0.00000000
    0.25000000    0.25000000    0.25000000
    0.25000000    0.25000000   -0.50000000
    0.25000000    0.25000000   -0.25000000
    0.25000000   -0.50000000    0.00000000
    0.25000000   -0.50000000    0.25000000
    0.25000000   -0.50000000   -0.50000000
    0.25000000   -0.50000000   -0.25000000
    0.25000000   -0.25000000    0.00000000
    0.25000000   -0.25000000    0.25000000
    0.25000000   -0.25000000   -0.50000000
    0.25000000   -0.25000000   -0.25000000
   -0.50000000    0.00000000    0.00000000
   -0.50000000    0.00000000    0.25000000
   -0.50000000    0.00000000   -0.50000000
   -0.50000000    0.00000000   -0.25000000
   -0.50000000    0.25000000    0.00000000
   -0.50000000    0.25000000    0.25000000
   -0.50000000    0.25000000   -0.50000000
   -0.50000000    0.25000000   -0.25000000
   -0.50000000   -0.50000000    0.00000000
   -0.50000000   -0.50000000    0.25000000
   -0.50000000   -0.50000000   -0.50000000
   -0.50000000   -0.50000000   -0.25000000
   -0.50000000   -0.25000000    0.00000000
   -0.50000000   -0.25000000    0.25000000
   -0.50000000   -0.25000000   -0.50000000
   -0.50000000   -0.25000000   -0.25000000
   -0.25000000    0.00000000    0.00000000
   -0.25000000    0.00000000    0.25000000
   -0.25000000    0.00000000   -0.50000000
   -0.25000000    0.00000000   -0.25000000
   -0.25000000    0.25000000    0.00000000
   -0.25000000    0.25000000    0.25000000
   -0.25000000    0.25000000   -0.50000000
   -0.25000000    0.25000000   -0.25000000
   -0.25000000   -0.50000000    0.00000000
   -0.25000000   -0.50000000    0.25000000
   -0.25000000   -0.50000000   -0.50000000
   -0.25000000   -0.50000000   -0.25000000
   -0.25000000   -0.25000000    0.00000000
   -0.25000000   -0.25000000    0.25000000
   -0.25000000   -0.25000000   -0.50000000
   -0.25000000   -0.25000000   -0.25000000
end kpoints

begin projections
    26
   0.33330    0.66670    0.50000     0  1  1
    0.0000000  0.0000000  1.0000000   1.0000000  0.0000000  0.0000000    1.00
   0.33330    0.66670    0.50000     1  1  1
    0.0000000  0.0000000  1.0000000   1.0000000  0.0000000  0.0000000    1.00
   0.33330    0.66670    0.50000     1  2  1
    0.0000000  0.0000000  1.0000000   1.0000000  0.0000000  0.0000000    1.00
   0.33330    0.66670    0.50000     1  3  1
    0.0000000  0.0000000  1.0000000   1.0000000  0.0000000  0.0000000    1.00
   0.33330    0.66670    0.50000     2  1  1
    0.0000000  0.0000000  1.0000000   1.0000000  0.0000000  0.0000000    1.00
   0.33330    0.66670    0.50000     2  2  1
    0.0000000  0.0000000  1.0000000   1.0000000  0.0000000  0.0000000    1.00
   0.33330    0.66670    0.50000     2  3  1
    0.0000000  0.0000000  1.0000000   1.0000000  0.0000000  0.0000000    1.00
   0.33330    0.66670    0.50000     2  4  1
    0.0000000  0.0000000  1.0000000   1.0000000  0.0000000  0.0000000    1.00
   0.33330    0.66670    0.50000     2  5  1
    0.0000000  0.0000000  1.0000000   1.0000000  0.0000000  0.0000000    1.00
   0.66670    0.33330    0.00000     0  1  1
    0.0000000  0.0000000  1.0000000   1.0000000  0.0000000  0.0000000    1.00
   0.66670    0.33330    0.00000     1  1  1
    0.0000000  0.0000000  1.0000000   1.0000000  0.0000000  0.0000000    1.00
   0.66670    0.33330    0.00000     1  2  1
    0.0000000  0.0000000  1.0000000   1.0000000  0.0000000  0.0000000    1.00
   0.66670    0.33330    0.00000     1  3  1
    0.0000000  0.0000000  1.0000000   1.0000000  0.0000000  0.0000000    1.00
   0.66670    0.33330    0.00000     2  1  1
    0.0000000  0.0000000  1.0000000   1.0000000  0.0000000  0.0000000    1.00
   0.66670    0.33330    0.00000     2  2  1
    0.0000000  0.0000000  1.0000000   1.0000000  0.0000000  0.0000000    1.00
   0.66670    0.33330    0.00000     2  3  1
    0.0000000  0.0000000  1.0000000   1.0000000  0.0000000  0.0000000    1.00
   0.66670    0.33330    0.00000     2  4  1
    0.0000000  0.0000000  1.0000000   1.0000000  0.0000000  0.0000000    1.00
   0.66670    0.33330    0.00000     2  5  1
    0.0000000  0.0000000  1.0000000   1.0000000  0.0000000  0.0000000    1.00
   0.33330    0.66670    0.11725     0  1  1
    0.0000000  0.0000000  1.0000000   1.0000000  0.0000000  0.0000000    1.00
   0.33330    0.66670    0.11725     1  1  1
    0.0000000  0.0000000  1.0000000   1.0000000  0.0000000  0.0000000    1.00
   0.33330    0.66670    0.11725     1  2  1
    0.0000000  0.0000000  1.0000000   1.0000000  0.0000000  0.0000000    1.00
   0.33330    0.66670    0.11725     1  3  1
    0.0000000  0.0000000  1.0000000   1.0000000  0.0000000  0.0000000    1.00
   0.66670    0.33330    0.61725     0  1  1
    0.0000000  0.0000000  1.0000000   1.0000000  0.0000000  0.0000000    1.00
   0.66670    0.33330    0.61725     1  1  1
    0.0000000  0.0000000  1.0000000   1.0000000  0.0000000  0.0000000    1.00
   0.66670    0.33330    0.61725     1  2  1
    0.0000000  0.0000000  1.0000000   1.0000000  0.0000000  0.0000000    1.00
   0.66670    0.33330    0.61725     1  3  1
    0.0000000  0.0000000  1.0000000   1.0000000  0.0000000  0.0000000    1.00
end projections

begin nnkpts
   8
     1     2      0   0   0
     1     4      0   0   0
     1     5      0   0   0
     1    13      0   0   0
     1    17      0   0   0
     1    29      0   0   0
     1    49      0   0   0
     1    53      0   0   0
     2     1      0   0   0
     2     3      0   0   1
     2     6      0   0   0
     2    14      0   0   0
     2    18      0   0   0
     2    30      0   0   0
     2    50      0   0   0
     2    54      0   0   0
     3     4      0   0   0
     3     2      0   0  -1
     3     7      0   0   0
     3    15      0   0   0
     3    19      0   0   0
     3    31      0   0   0
     3    51      0   0   0
     3    55      0   0   0
     4     1      0   0   0
     4     3      0   0   0
     4     8      0   0   0
     4    16      0   0   0
     4    20      0   0   0
     4    32      0   0   0
     4    52      0   0   0
     4    56      0   0   0
     5     6      0   0   0
     5     8      0   0   0
     5     1      0   0   0
     5    17      0   0   0
     5    21      0   0   0
     5    53      0   0   0
     5     9      0   1   0
     5    57      0   1   0
     6     5      0   0   0
     6     7      0   0   1
     6     2      0   0   0
     6    18      0   0   0
     6    22      0   0   0
     6    54      0   0   0
     6    10      0   1   0
     6    58      0   1   0
     7     8      0   0   0
     7     6      0   0  -1
     7     3      0   0   0
     7    19      0   0   0
     7    23      0   0   0
     7    55      0   0   0
     7    11      0   1   0
     7    59      0   1   0
     8     5      0   0   0
     8     7      0   0   0
     8     4      0   0   0
     8    20      0   0   0
     8    24      0   0   0
     8    56      0   0   0
     8    12      0   1   0
     8    60      0   1   0
     9    10      0   0   0
     9    12      0   0   0
     9    13      0   0   0
     9    25      0   0   0
     9    57      0   0   0
     9    61      0   0   0
     9     5      0  -1   0
     9    21      0  -1   0
    10     9      0   0   0
    10    11      0   0   1
    10    14      0   0   0
    10    26      0   0   0
    10    58      0   0   0
    10    62      0   0   0
    10     6      0  -1   0
    10    22      0  -1   0
    11    12      0   0   0
    11    10      0   0  -1
    11    15      0   0   0
    11    27      0   0   0
    11    59      0   0   0
    11    63      0   0   0
    11     7      0  -1   0
    11    23      0  -1   0
    12     9      0   0   0
    12    11      0   0   0
    12    16      0   0   0
    12    28      0   0   0
    12    60      0   0   0
    12    64      0   0   0
    12     8      0  -1   0
    12    24      0  -1   0
    13    14      0   0   0
    13    16      0   0   0
    13     1      0   0   0
    13     9      0   0   0
    13    25      0   0   0
    13    29      0   0   0
    13    49      0   0   0
    13    61      0   0   0
    14    13      0   0   0
    14    15      0   0   1
    14     2      0   0   0
    14    10      0   0   0
    14    26      0   0   0
    14    30      0   0   0
    14    50      0   0   0
    14    62      0   0   0
    15    16      0   0   0
    15    14      0   0  -1
    15     3      0   0   0
    15    11      0   0   0
    15    27      0   0   0
    15    31      0   0   0
    15    51      0   0   0
    15    63      0   0   0
    16    13      0   0   0
    16    15      0   0   0
    16     4      0   0   0
    16    12      0   0   0
    16    28      0   0   0
    16    32      0   0   0
    16    52      0   0   0
    16    64      0   0   0
    17    18      0   0   0
    17    20      0   0   0
    17     1      0   0   0
    17     5      0   0   0
    17    21      0   0   0
    17    29      0   0   0
    17    33      1   0   0
    17    45      1   0   0
    18    17      0   0   0
    18    19      0   0   1
    18     2      0   0   0
    18     6      0   0   0
    18    22      0   0   0
    18    30      0   0   0
    18    34      1   0   0
    18    46      1   0   0
    19    20      0   0   0
    19    18      0   0  -1
    19     3      0   0   0
    19     7      0   0   0
    19    23      0   0   0
    19    31      0   0   0
    19    35      1   0   0
    19    47      1   0   0
    20    17      0   0   0
    20    19      0   0   0
    20     4      0   0   0
    20     8      0   0   0
    20    24      0   0   0
    20    32      0   0   0
    20    36      1   0   0
    20    48      1   0   0
    21    22      0   0   0
    21    24      0   0   0
    21     5      0   0   0
    21    17      0   0   0
    21    33      1   0   0
    21    37      1   0   0
    21     9      0   1   0
    21    25      0   1   0
    22    21      0   0   0
    22    23      0   0   1
    22     6      0   0   0
    22    18      0   0   0
    22    34      1   0   0
    22    38      1   0   0
    22    10      0   1   0
    22    26      0   1   0
    23    24      0   0   0
    23    22      0   0  -1
    23     7      0   0   0
    23    19      0   0   0
    23    35      1   0   0
    23    39      1   0   0
    23    11      0   1   0
    23    27      0   1   0
    24    21      0   0   0
    24    23      0   0   0
    24     8      0   0   0
    24    20      0   0   0
    24    36      1   0   0
    24    40      1   0   0
    24    12      0   1   0
    24    28      0   1   0
    25    26      0   0   0
    25    28      0   0   0
    25     9      0   0   0
    25    13      0   0   0
    25    29      0   0   0
    25    41      1   0   0
    25    37      1  -1   0
    25    21      0  -1   0
    26    25      0   0   0
    26    27      0   0   1
    26    10      0   0   0
    26    14      0   0   0
    26    30      0   0   0
    26    42      1   0   0
    26    38      1  -1   0
    26    22      0  -1   0
    27    28      0   0   0
    27    26      0   0  -1
    27    11      0   0   0
    27    15      0   0   0
    27    31      0   0   0
    27    43      1   0   0
    27    39      1  -1   0
    27    23      0  -1   0
    28    25      0   0   0
    28    27      0   0   0
    28    12      0   0   0
    28    16      0   0   0
    28    32      0   0   0
    28    44      1   0   0
    28    40      1  -1   0
    28    24      0  -1   0
    29    30      0   0   0
    29    32      0   0   0
    29     1      0   0   0
    29    13      0   0   0
    29    17      0   0   0
    29    25      0   0   0
    29    41      1   0   0
    29    45      1   0   0
    30    29      0   0   0
    30    31      0   0   1
    30     2      0   0   0
    30    14      0   0   0
    30    18      0   0   0
    30    26      0   0   0
    30    42      1   0   0
    30    46      1   0   0
    31    32      0   0   0
    31    30      0   0  -1
    31     3      0   0   0
    31    15      0   0   0
    31    19      0   0   0
    31    27      0   0   0
    31    43      1   0   0
    31    47      1   0   0
    32    29      0   0   0
    32    31      0   0   0
    32     4      0   0   0
    32    16      0   0   0
    32    20      0   0   0
    32    28      0   0   0
    32    44      1   0   0
    32    48      1   0   0
    33    34      0   0   0
    33    36      0   0   0
    33    37      0   0   0
    33    45      0   0   0
    33    49      0   0   0
    33    61      0   0   0
    33    17     -1   0   0
    33    21     -1   0   0
    34    33      0   0   0
    34    35      0   0   1
    34    38      0   0   0
    34    46      0   0   0
    34    50      0   0   0
    34    62      0   0   0
    34    18     -1   0   0
    34    22     -1   0   0
    35    36      0   0   0
    35    34      0   0  -1
    35    39      0   0   0
    35    47      0   0   0
    35    51      0   0   0
    35    63      0   0   0
    35    19     -1   0   0
    35    23     -1   0   0
    36    33      0   0   0
    36    35      0   0   0
    36    40      0   0   0
    36    48      0   0   0
    36    52      0   0   0
    36    64      0   0   0
    36    20     -1   0   0
    36    24     -1   0   0
    37    38      0   0   0
    37    40      0   0   0
    37    33      0   0   0
    37    49      0   0   0
    37    53      0   0   0
    37    41      0   1   0
    37    25     -1   1   0
    37    21     -1   0   0
    38    37      0   0   0
    38    39      0   0   1
    38    34      0   0   0
    38    50      0   0   0
    38    54      0   0   0
    38    42      0   1   0
    38    26     -1   1   0
    38    22     -1   0   0
    39    40      0   0   0
    39    38      0   0  -1
    39    35      0   0   0
    39    51      0   0   0
    39    55      0   0   0
    39    43      0   1   0
    39    27     -1   1   0
    39    23     -1   0   0
    40    37      0   0   0
    40    39      0   0   0
    40    36      0   0   0
    40    52      0   0   0
    40    56      0   0   0
    40    44      0   1   0
    40    28     -1   1   0
    40    24     -1   0   0
    41    42      0   0   0
    41    44      0   0   0
    41    45      0   0   0
    41    57      0   0   0
    41    37      0  -1   0
    41    53      0  -1   0
    41    25     -1   0   0
    41    29     -1   0   0
    42    41      0   0   0
    42    43      0   0   1
    42    46      0   0   0
    42    58      0   0   0
    42    38      0  -1   0
    42    54      0  -1   0
    42    26     -1   0   0
    42    30     -1   0   0
    43    44      0   0   0
    43    42      0   0  -1
    43    47      0   0   0
    43    59      0   0   0
    43    39      0  -1   0
    43    55      0  -1   0
    43    27     -1   0   0
    43    31     -1   0   0
    44    41      0   0   0
    44    43      0   0   0
    44    48      0   0   0
    44    60      0   0   0
    44    40      0  -1   0
    44    56      0  -1   0
    44    28     -1   0   0
    44    32     -1   0   0
    45    46      0   0   0
    45    48      0   0   0
    45    33      0   0   0
    45    41      0   0   0
    45    57      0   0   0
    45    61      0   0   0
    45    17     -1   0   0
    45    29     -1   0   0
    46    45      0   0   0
    46    47      0   0   1
    46    34      0   0   0
    46    42      0   0   0
    46    58      0   0   0
    46    62      0   0   0
    46    18     -1   0   0
    46    30     -1   0   0
    47    48      0   0   0
    47    46      0   0  -1
    47    35      0   0   0
    47    43      0   0   0
    47    59      0   0   0
    47    63      0   0   0
    47    19     -1   0   0
    47    31     -1   0   0
    48    45      0   0   0
    48    47      0   0   0
    48    36      0   0   0
    48    44      0   0   0
    48    60      0   0   0
    48    64      0   0   0
    48    20     -1   0   0
    48    32     -1   0   0
    49    50      0   0   0
    49    52      0   0   0
    49     1      0   0   0
    49    13      0   0   0
    49    33      0   0   0
    49    37      0   0   0
    49    53      0   0   0
    49    61      0   0   0
    50    49      0   0   0
    50    51      0   0   1
    50     2      0   0   0
    50    14      0   0   0
    50    34      0   0   0
    50    38      0   0   0
    50    54      0   0   0
    50    62      0   0   0
    51    52      0   0   0
    51    50      0   0  -1
    51     3      0   0   0
    51    15      0   0   0
    51    35      0   0   0
    51    39      0   0   0
    51    55      0   0   0
    51    63      0   0   0
    52    49      0   0   0
    52    51      0   0   0
    52     4      0   0   0
    52    16      0   0   0
    52    36      0   0   0
    52    40      0   0   0
    52    56      0   0   0
    52    64      0   0   0
    53    54      0   0   0
    53    56      0   0   0
    53     1      0   0   0
    53     5      0   0   0
    53    37      0   0   0
    53    49      0   0   0
    53    41      0   1   0
    53    57      0   1   0
    54    53      0   0   0
    54    55      0   0   1
    54     2      0   0   0
    54     6      0   0   0
    54    38      0   0   0
    54    50      0   0   0
    54    42      0   1   0
    54    58      0   1   0
    55    56      0   0   0
    55    54      0   0  -1
    55     3      0   0   0
    55     7      0   0   0
    55    39      0   0   0
    55    51      0   0   0
    55    43      0   1   0
    55    59      0   1   0
    56    53      0   0   0
    56    55      0   0   0
    56     4      0   0   0
    56     8      0   0   0
    56    40      0   0   0
    56    52      0   0   0
    56    44      0   1   0
    56    60      0   1   0
    57    58      0   0   0
    57    60      0   0   0
    57     9      0   0   0
    57    41      0   0   0
    57    45      0   0   0
    57    61      0   0   0
    57     5      0  -1   0
    57    53      0  -1   0
    58    57      0   0   0
    58    59      0   0   1
    58    10      0   0   0
    58    42      0   0   0
    58    46      0   0   0
    58    62      0   0   0
    58     6      0  -1   0
    58    54      0  -1   0
    59    60      0   0   0
    59    58      0   0  -1
    59    11      0   0   0
    59    43      0   0   0
    59    47      0   0   0
    59    63      0   0   0
    59     7      0  -1   0
    59    55      0  -1   0
    60    57      0   0   0
    60    59      0   0   0
    60    12      0   0   0
    60    44      0   0   0
    60    48      0   0   0
    60    64      0   0   0
    60     8      0  -1   0
    60    56      0  -1   0
    61    62      0   0   0
    61    64      0   0   0
    61     9      0   0   0
    61    13      0   0   0
    61    33      0   0   0
    61    45      0   0   0
    61    49      0   0   0
    61    57      0   0   0
    62    61      0   0   0
    62    63      0   0   1
    62    10      0   0   0
    62    14      0   0   0
    62    34      0   0   0
    62    46      0   0   0
    62    50      0   0   0
    62    58      0   0   0
    63    64      0   0   0
    63    62      0   0  -1
    63    11      0   0   0
    63    15      0   0   0
    63    35      0   0   0
    63    47      0   0   0
    63    51      0   0   0
    63    59      0   0   0
    64    61      0   0   0
    64    63      0   0   0
    64    12      0   0   0
    64    16      0   0   0
    64    36      0   0   0
    64    48      0   0   0
    64    52      0   0   0
    64    60      0   0   0
end nnkpts

begin exclude_bands
  26
  27
  28
  29
  30
  31
  32
  33
  34
  35
  36
  37
  38
  39
  40
  41
  42
  43
  44
  45
  46
  47
  48
  49
  50
  51
  52
end exclude_bands
