
     Program PWSCF v.6.7MaX starts on  7Jun2021 at 14:54: 8 

     This program is part of the open-source Quantum ESPRESSO suite
     for quantum simulation of materials; please cite
         "P. Giannozzi et al., J. Phys.:Condens. Matter 21 395502 (2009);
         "P. Giannozzi et al., J. Phys.:Condens. Matter 29 465901 (2017);
          URL http://www.quantum-espresso.org", 
     in publications or presentations arising from this work. More details at
     http://www.quantum-espresso.org/quote

     Parallel version (MPI), running on     1 processors

     MPI processes distributed on     1 nodes
     Waiting for input...
     Reading input from standard input

     Current dimensions of program PWSCF are:
     Max number of different atomic species (ntypx) = 10
     Max number of k-points (npk) =  40000
     Max angular momentum in pseudopotentials (lmaxx) =  3
     Message from routine volume:
     axis vectors are left-handed

     Atomic positions and unit cell read from directory:
     ./tmp/CoO.save/
     Atomic positions from file used, from input discarded
 
     Message from routine volume:
     axis vectors are left-handed
     file O.pbesol-n-kjpaw_psl.0.1.UPF: wavefunction(s)  2P renormalized

     Subspace diagonalization in iterative solution of the eigenvalue problem:
     a serial algorithm will be used

     Message from routine setup:
     using ibrav=0 with symmetry is DISCOURAGED, use correct ibrav instead
 
     G-vector sticks info
     --------------------
     sticks:   dense  smooth     PW     G-vecs:    dense   smooth      PW
     Sum        1201     597    207                20701     7367    1491
 


     bravais-lattice index     =            0
     lattice parameter (alat)  =       8.0000  a.u.
     unit-cell volume          =     261.2912 (a.u.)^3
     number of atoms/cell      =            4
     number of atomic types    =            3
     number of electrons       =        46.00
     number of Kohn-Sham states=           40
     kinetic-energy cutoff     =      35.0000  Ry
     charge density cutoff     =     280.0000  Ry
     Exchange-correlation= SLA  PW   PSX  PSC
                           (   1   4  10   8   0   0   0)

     celldm(1)=   8.000000  celldm(2)=   0.000000  celldm(3)=   0.000000
     celldm(4)=   0.000000  celldm(5)=   0.000000  celldm(6)=   0.000000

     crystal axes: (cart. coord. in units of alat)
               a(1) = (   0.500381   0.500381   1.004818 )  
               a(2) = (   0.500381   1.004818   0.500381 )  
               a(3) = (   1.004818   0.500381   0.500381 )  

     reciprocal axes: (cart. coord. in units 2 pi/alat)
               b(1) = ( -0.494599 -0.494599  1.487807 )  
               b(2) = ( -0.494599  1.487807 -0.494599 )  
               b(3) = (  1.487807 -0.494599 -0.494599 )  


     PseudoPot. # 1 for Co read from file:
     ../files/pseudo/co_pbesol_v1.2.uspp.F.UPF
     MD5 check sum: 3b4cd4e7cc7df4da9fdede0fd33e2193
     Pseudo is Ultrasoft + core correction, Zval = 17.0
     Generated by new atomic code, or converted to UPF format
     Using radial grid of  863 points,  6 beta functions with: 
                l(1) =   0
                l(2) =   0
                l(3) =   1
                l(4) =   1
                l(5) =   2
                l(6) =   2
     Q(r) pseudized with  8 coefficients,  rinner =    1.200   1.200   1.200
                                                       1.200   1.200

     PseudoPot. # 2 for Co read from file:
     ../files/pseudo/co_pbesol_v1.2.uspp.F.UPF
     MD5 check sum: 3b4cd4e7cc7df4da9fdede0fd33e2193
     Pseudo is Ultrasoft + core correction, Zval = 17.0
     Generated by new atomic code, or converted to UPF format
     Using radial grid of  863 points,  6 beta functions with: 
                l(1) =   0
                l(2) =   0
                l(3) =   1
                l(4) =   1
                l(5) =   2
                l(6) =   2
     Q(r) pseudized with  8 coefficients,  rinner =    1.200   1.200   1.200
                                                       1.200   1.200

     PseudoPot. # 3 for O  read from file:
     ../files/pseudo/O.pbesol-n-kjpaw_psl.0.1.UPF
     MD5 check sum: 126339daddaa87477ab44acfa0b5aa00
     Pseudo is Projector augmented-wave + core cor, Zval =  6.0
     Generated using "atomic" code by A. Dal Corso  v.6.0 svn rev. 13079
     Shape of augmentation charge: BESSEL
     Using radial grid of 1095 points,  4 beta functions with: 
                l(1) =   0
                l(2) =   0
                l(3) =   1
                l(4) =   1
     Q(r) pseudized with 0 coefficients 


     atomic species   valence    mass     pseudopotential
        Co1           17.00    58.93319     Co( 1.00)
        Co2           17.00    58.93319     Co( 1.00)
        O              6.00    15.99900     O ( 1.00)

     Starting magnetic structure 
     atomic species   magnetization
        Co1          0.500
        Co2         -0.500
        O            0.000

     12 Sym. Ops., with inversion, found


                                    s                        frac. trans.

      isym =  1     identity                                     

 cryst.   s( 1) = (     1          0          0      )
                  (     0          1          0      )
                  (     0          0          1      )

 cart.    s( 1) = (  1.0000000 -0.0000000 -0.0000000 )
                  ( -0.0000000  1.0000000 -0.0000000 )
                  ( -0.0000000 -0.0000000  1.0000000 )


      isym =  2     180 deg rotation - cart. axis [1,-1,0]       

 cryst.   s( 2) = (    -1          0          0      )
                  (     0          0         -1      )
                  (     0         -1          0      )

 cart.    s( 2) = (  0.0000000 -1.0000000  0.0000000 )
                  ( -1.0000000  0.0000000  0.0000000 )
                  (  0.0000000  0.0000000 -1.0000000 )


      isym =  3     180 deg rotation - cart. axis [-1,0,1]       

 cryst.   s( 3) = (     0          0         -1      )
                  (     0         -1          0      )
                  (    -1          0          0      )

 cart.    s( 3) = (  0.0000000  0.0000000 -1.0000000 )
                  (  0.0000000 -1.0000000  0.0000000 )
                  ( -1.0000000  0.0000000  0.0000000 )


      isym =  4     180 deg rotation - cart. axis [0,1,-1]       

 cryst.   s( 4) = (     0         -1          0      )
                  (    -1          0          0      )
                  (     0          0         -1      )

 cart.    s( 4) = ( -1.0000000  0.0000000  0.0000000 )
                  (  0.0000000  0.0000000 -1.0000000 )
                  (  0.0000000 -1.0000000  0.0000000 )


      isym =  5     120 deg rotation - cart. axis [-1,-1,-1]     

 cryst.   s( 5) = (     0          1          0      )
                  (     0          0          1      )
                  (     1          0          0      )

 cart.    s( 5) = ( -0.0000000  1.0000000 -0.0000000 )
                  ( -0.0000000 -0.0000000  1.0000000 )
                  (  1.0000000 -0.0000000 -0.0000000 )


      isym =  6     120 deg rotation - cart. axis [1,1,1]        

 cryst.   s( 6) = (     0          0          1      )
                  (     1          0          0      )
                  (     0          1          0      )

 cart.    s( 6) = ( -0.0000000 -0.0000000  1.0000000 )
                  (  1.0000000 -0.0000000 -0.0000000 )
                  ( -0.0000000  1.0000000 -0.0000000 )


      isym =  7     inversion                                    

 cryst.   s( 7) = (    -1          0          0      )
                  (     0         -1          0      )
                  (     0          0         -1      )

 cart.    s( 7) = ( -1.0000000  0.0000000  0.0000000 )
                  (  0.0000000 -1.0000000  0.0000000 )
                  (  0.0000000  0.0000000 -1.0000000 )


      isym =  8     inv. 180 deg rotation - cart. axis [1,-1,0]  

 cryst.   s( 8) = (     1          0          0      )
                  (     0          0          1      )
                  (     0          1          0      )

 cart.    s( 8) = ( -0.0000000  1.0000000 -0.0000000 )
                  (  1.0000000 -0.0000000 -0.0000000 )
                  ( -0.0000000 -0.0000000  1.0000000 )


      isym =  9     inv. 180 deg rotation - cart. axis [-1,0,1]  

 cryst.   s( 9) = (     0          0          1      )
                  (     0          1          0      )
                  (     1          0          0      )

 cart.    s( 9) = ( -0.0000000 -0.0000000  1.0000000 )
                  ( -0.0000000  1.0000000 -0.0000000 )
                  (  1.0000000 -0.0000000 -0.0000000 )


      isym = 10     inv. 180 deg rotation - cart. axis [0,1,-1]  

 cryst.   s(10) = (     0          1          0      )
                  (     1          0          0      )
                  (     0          0          1      )

 cart.    s(10) = (  1.0000000 -0.0000000 -0.0000000 )
                  ( -0.0000000 -0.0000000  1.0000000 )
                  ( -0.0000000  1.0000000 -0.0000000 )


      isym = 11     inv. 120 deg rotation - cart. axis [-1,-1,-1]

 cryst.   s(11) = (     0         -1          0      )
                  (     0          0         -1      )
                  (    -1          0          0      )

 cart.    s(11) = (  0.0000000 -1.0000000  0.0000000 )
                  (  0.0000000  0.0000000 -1.0000000 )
                  ( -1.0000000  0.0000000  0.0000000 )


      isym = 12     inv. 120 deg rotation - cart. axis [1,1,1]   

 cryst.   s(12) = (     0          0         -1      )
                  (    -1          0          0      )
                  (     0         -1          0      )

 cart.    s(12) = (  0.0000000  0.0000000 -1.0000000 )
                  ( -1.0000000  0.0000000  0.0000000 )
                  (  0.0000000 -1.0000000  0.0000000 )


   Cartesian axes

     site n.     atom                  positions (alat units)
         1           Co1 tau(   1) = (   0.0000000   0.0000000   0.0000000  )
         2           Co2 tau(   2) = (   1.0027898   1.0027898   1.0027898  )
         3           O   tau(   3) = (   0.5013949   0.5013949   0.5013949  )
         4           O   tau(   4) = (   1.5041847   1.5041847   1.5041847  )

   Crystallographic axes

     site n.     atom                  positions (cryst. coord.)
         1           Co1 tau(   1) = (  0.0000000  0.0000000  0.0000000  )
         2           Co2 tau(   2) = (  0.5000000  0.5000000  0.5000000  )
         3           O   tau(   3) = (  0.2500000  0.2500000  0.2500000  )
         4           O   tau(   4) = (  0.7500000  0.7500000  0.7500000  )

     number of k points=    32  Marzari-Vanderbilt smearing, width (Ry)=  0.0200
                       cart. coord. in units 2pi/alat
        k(    1) = (   0.0000000   0.0000000   0.0000000), wk =   0.0046296
        k(    2) = (   0.2479678  -0.0824332  -0.0824332), wk =   0.0277778
        k(    3) = (   0.4959356  -0.1648663  -0.1648663), wk =   0.0277778
        k(    4) = (  -0.7439034   0.2472995   0.2472995), wk =   0.0138889
        k(    5) = (   0.1655347   0.1655347  -0.1648663), wk =   0.0277778
        k(    6) = (   0.4135025   0.0831015  -0.2472995), wk =   0.0555556
        k(    7) = (  -0.8263366   0.4952673   0.1648663), wk =   0.0555556
        k(    8) = (  -0.5783688   0.4128341   0.0824332), wk =   0.0555556
        k(    9) = (  -0.3304010   0.3304010  -0.0000000), wk =   0.0277778
        k(   10) = (   0.3310693   0.3310693  -0.3297326), wk =   0.0277778
        k(   11) = (  -0.9087697   0.7432351   0.0824332), wk =   0.0555556
        k(   12) = (  -0.6608019   0.6608019   0.0000000), wk =   0.0277778
        k(   13) = (  -0.4966040  -0.4966040   0.4945989), wk =   0.0138889
        k(   14) = (   0.0831015   0.0831015   0.0831015), wk =   0.0092593
        k(   15) = (   0.3310693   0.0006683   0.0006683), wk =   0.0277778
        k(   16) = (  -0.9087697   0.4128341   0.4128341), wk =   0.0277778
        k(   17) = (  -0.6608019   0.3304010   0.3304010), wk =   0.0277778
        k(   18) = (  -0.4128341   0.2479678   0.2479678), wk =   0.0277778
        k(   19) = (   0.2486361   0.2486361  -0.0817648), wk =   0.0277778
        k(   20) = (  -0.9912029   0.6608019   0.3304010), wk =   0.0555556
        k(   21) = (  -0.7432351   0.5783688   0.2479678), wk =   0.0555556
        k(   22) = (  -0.4952673   0.4959356   0.1655347), wk =   0.0555556
        k(   23) = (  -0.5790371  -0.5790371   0.7425667), wk =   0.0277778
        k(   24) = (  -0.3310693  -0.6614703   0.6601336), wk =   0.0555556
        k(   25) = (  -0.0831015  -0.7439034   0.5777004), wk =   0.0277778
        k(   26) = (  -0.4135025  -0.4135025   0.5777004), wk =   0.0277778
        k(   27) = (   0.1662030   0.1662030   0.1662030), wk =   0.0092593
        k(   28) = (  -1.0736360   0.5783688   0.5783688), wk =   0.0277778
        k(   29) = (  -0.8256682   0.4959356   0.4959356), wk =   0.0277778
        k(   30) = (  -0.6614703  -0.6614703   0.9905345), wk =   0.0277778
        k(   31) = (  -0.4135025  -0.7439034   0.9081014), wk =   0.0277778
        k(   32) = (  -0.2493045  -0.2493045  -0.2493045), wk =   0.0046296

                       cryst. coord.
        k(    1) = (   0.0000000   0.0000000   0.0000000), wk =   0.0046296
        k(    2) = (  -0.0000000  -0.0000000   0.1666667), wk =   0.0277778
        k(    3) = (  -0.0000000  -0.0000000   0.3333333), wk =   0.0277778
        k(    4) = (   0.0000000   0.0000000  -0.5000000), wk =   0.0138889
        k(    5) = (  -0.0000000   0.1666667   0.1666667), wk =   0.0277778
        k(    6) = (  -0.0000000   0.1666667   0.3333333), wk =   0.0555556
        k(    7) = (   0.0000000   0.1666667  -0.5000000), wk =   0.0555556
        k(    8) = (   0.0000000   0.1666667  -0.3333333), wk =   0.0555556
        k(    9) = (   0.0000000   0.1666667  -0.1666667), wk =   0.0277778
        k(   10) = (  -0.0000000   0.3333333   0.3333333), wk =   0.0277778
        k(   11) = (   0.0000000   0.3333333  -0.5000000), wk =   0.0555556
        k(   12) = (   0.0000000   0.3333333  -0.3333333), wk =   0.0277778
        k(   13) = (   0.0000000  -0.5000000  -0.5000000), wk =   0.0138889
        k(   14) = (   0.1666667   0.1666667   0.1666667), wk =   0.0092593
        k(   15) = (   0.1666667   0.1666667   0.3333333), wk =   0.0277778
        k(   16) = (   0.1666667   0.1666667  -0.5000000), wk =   0.0277778
        k(   17) = (   0.1666667   0.1666667  -0.3333333), wk =   0.0277778
        k(   18) = (   0.1666667   0.1666667  -0.1666667), wk =   0.0277778
        k(   19) = (   0.1666667   0.3333333   0.3333333), wk =   0.0277778
        k(   20) = (   0.1666667   0.3333333  -0.5000000), wk =   0.0555556
        k(   21) = (   0.1666667   0.3333333  -0.3333333), wk =   0.0555556
        k(   22) = (   0.1666667   0.3333333  -0.1666667), wk =   0.0555556
        k(   23) = (   0.1666667  -0.5000000  -0.5000000), wk =   0.0277778
        k(   24) = (   0.1666667  -0.5000000  -0.3333333), wk =   0.0555556
        k(   25) = (   0.1666667  -0.5000000  -0.1666667), wk =   0.0277778
        k(   26) = (   0.1666667  -0.3333333  -0.3333333), wk =   0.0277778
        k(   27) = (   0.3333333   0.3333333   0.3333333), wk =   0.0092593
        k(   28) = (   0.3333333   0.3333333  -0.5000000), wk =   0.0277778
        k(   29) = (   0.3333333   0.3333333  -0.3333333), wk =   0.0277778
        k(   30) = (   0.3333333  -0.5000000  -0.5000000), wk =   0.0277778
        k(   31) = (   0.3333333  -0.5000000  -0.3333333), wk =   0.0277778
        k(   32) = (  -0.5000000  -0.5000000  -0.5000000), wk =   0.0046296

     Dense  grid:    20701 G-vectors     FFT dimensions: (  54,  54,  54)

     Smooth grid:     7367 G-vectors     FFT dimensions: (  40,  40,  40)

     Dynamical RAM for                 wfc:       0.56 MB

     Dynamical RAM for     wfc (w. buffer):       0.56 MB

     Dynamical RAM for           str. fact:       0.95 MB

     Dynamical RAM for           local pot:       0.00 MB

     Dynamical RAM for          nlocal pot:       0.73 MB

     Dynamical RAM for                qrad:       4.03 MB

     Dynamical RAM for          rho,v,vnew:       9.10 MB

     Dynamical RAM for           G-vectors:       1.24 MB

     Dynamical RAM for          h,s,v(r/c):       0.29 MB

     Dynamical RAM for          <psi|beta>:       0.03 MB

     Dynamical RAM for                 psi:       1.12 MB

     Dynamical RAM for                hpsi:       1.12 MB

     Dynamical RAM for                spsi:       1.12 MB

     Dynamical RAM for      wfcinit/wfcrot:       1.15 MB

     Dynamical RAM for           addusdens:      59.70 MB

     Estimated static dynamical RAM per process >      25.08 MB

     Estimated max dynamical RAM per process >      84.78 MB

     Check: negative core charge=   -0.000039
     Generating pointlists ...
     new r_m :   0.2077 (alat units)  1.6613 (a.u.) for type    1
     new r_m :   0.2077 (alat units)  1.6613 (a.u.) for type    2
     new r_m :   0.2077 (alat units)  1.6613 (a.u.) for type    3

     The potential is recalculated from file :
     ./tmp/CoO.save/charge-density

     Starting wfcs are   34 randomized atomic wfcs +    6 random wfcs
     Checking if some PAW data can be deallocated... 

     Band Structure Calculation
     Davidson diagonalization with overlap

     Computing kpt #:     1  of    64
     total cpu time spent up to now is        2.0 secs

     Computing kpt #:     2  of    64
     total cpu time spent up to now is        2.8 secs

     Computing kpt #:     3  of    64
     total cpu time spent up to now is        3.5 secs

     Computing kpt #:     4  of    64
     total cpu time spent up to now is        4.3 secs

     Computing kpt #:     5  of    64
     total cpu time spent up to now is        5.1 secs

     Computing kpt #:     6  of    64
     total cpu time spent up to now is        6.2 secs

     Computing kpt #:     7  of    64
     total cpu time spent up to now is        7.1 secs

     Computing kpt #:     8  of    64
     total cpu time spent up to now is        7.8 secs

     Computing kpt #:     9  of    64
     total cpu time spent up to now is        8.6 secs

     Computing kpt #:    10  of    64
     total cpu time spent up to now is        9.4 secs

     Computing kpt #:    11  of    64
     total cpu time spent up to now is       10.3 secs

     Computing kpt #:    12  of    64
     total cpu time spent up to now is       11.3 secs

     Computing kpt #:    13  of    64
     total cpu time spent up to now is       12.1 secs

     Computing kpt #:    14  of    64
     total cpu time spent up to now is       12.9 secs

     Computing kpt #:    15  of    64
     total cpu time spent up to now is       13.7 secs

     Computing kpt #:    16  of    64
     total cpu time spent up to now is       14.5 secs

     Computing kpt #:    17  of    64
     total cpu time spent up to now is       15.3 secs

     Computing kpt #:    18  of    64
     total cpu time spent up to now is       16.1 secs

     Computing kpt #:    19  of    64
     total cpu time spent up to now is       16.9 secs

     Computing kpt #:    20  of    64
     total cpu time spent up to now is       17.6 secs

     Computing kpt #:    21  of    64
     total cpu time spent up to now is       18.4 secs

     Computing kpt #:    22  of    64
     total cpu time spent up to now is       19.2 secs

     Computing kpt #:    23  of    64
     total cpu time spent up to now is       20.0 secs

     Computing kpt #:    24  of    64
     total cpu time spent up to now is       20.8 secs

     Computing kpt #:    25  of    64
     total cpu time spent up to now is       21.6 secs

     Computing kpt #:    26  of    64
     total cpu time spent up to now is       22.3 secs

     Computing kpt #:    27  of    64
     total cpu time spent up to now is       23.1 secs

     Computing kpt #:    28  of    64
     total cpu time spent up to now is       23.9 secs

     Computing kpt #:    29  of    64
     total cpu time spent up to now is       24.6 secs

     Computing kpt #:    30  of    64
     total cpu time spent up to now is       25.4 secs

     Computing kpt #:    31  of    64
     total cpu time spent up to now is       26.2 secs

     Computing kpt #:    32  of    64
     total cpu time spent up to now is       26.8 secs

     Computing kpt #:    33  of    64
     total cpu time spent up to now is       27.6 secs

     Computing kpt #:    34  of    64
     total cpu time spent up to now is       28.4 secs

     Computing kpt #:    35  of    64
     total cpu time spent up to now is       29.1 secs

     Computing kpt #:    36  of    64
     total cpu time spent up to now is       29.9 secs

     Computing kpt #:    37  of    64
     total cpu time spent up to now is       30.8 secs

     Computing kpt #:    38  of    64
     total cpu time spent up to now is       31.9 secs

     Computing kpt #:    39  of    64
     total cpu time spent up to now is       32.7 secs

     Computing kpt #:    40  of    64
     total cpu time spent up to now is       33.5 secs

     Computing kpt #:    41  of    64
     total cpu time spent up to now is       34.3 secs

     Computing kpt #:    42  of    64
     total cpu time spent up to now is       35.1 secs

     Computing kpt #:    43  of    64
     total cpu time spent up to now is       35.8 secs

     Computing kpt #:    44  of    64
     total cpu time spent up to now is       36.7 secs

     Computing kpt #:    45  of    64
     total cpu time spent up to now is       37.5 secs

     Computing kpt #:    46  of    64
     total cpu time spent up to now is       38.3 secs

     Computing kpt #:    47  of    64
     total cpu time spent up to now is       39.1 secs

     Computing kpt #:    48  of    64
     total cpu time spent up to now is       39.9 secs

     Computing kpt #:    49  of    64
     total cpu time spent up to now is       40.7 secs

     Computing kpt #:    50  of    64
     total cpu time spent up to now is       41.6 secs

     Computing kpt #:    51  of    64
     total cpu time spent up to now is       42.4 secs

     Computing kpt #:    52  of    64
     total cpu time spent up to now is       43.2 secs

     Computing kpt #:    53  of    64
     total cpu time spent up to now is       44.0 secs

     Computing kpt #:    54  of    64
     total cpu time spent up to now is       44.8 secs

     Computing kpt #:    55  of    64
     total cpu time spent up to now is       45.6 secs

     Computing kpt #:    56  of    64
     total cpu time spent up to now is       46.4 secs

     Computing kpt #:    57  of    64
     total cpu time spent up to now is       47.2 secs

     Computing kpt #:    58  of    64
     total cpu time spent up to now is       48.0 secs

     Computing kpt #:    59  of    64
     total cpu time spent up to now is       48.7 secs

     Computing kpt #:    60  of    64
     total cpu time spent up to now is       49.5 secs

     Computing kpt #:    61  of    64
     total cpu time spent up to now is       50.3 secs

     Computing kpt #:    62  of    64
     total cpu time spent up to now is       51.1 secs

     Computing kpt #:    63  of    64
     total cpu time spent up to now is       51.8 secs

     Computing kpt #:    64  of    64
     total cpu time spent up to now is       52.5 secs

     ethr =  2.17E-13,  avg # of iterations = 34.5

     total cpu time spent up to now is       52.5 secs

     End of band structure calculation

 ------ SPIN UP ------------


          k = 0.0000 0.0000 0.0000 (   923 PWs)   bands (ev):

   -82.8989 -79.7286 -46.3074 -46.3074 -46.2489 -43.2493 -43.2493 -43.2226
    -6.5111  -5.2292   5.5447   8.0242   8.0242  10.5227  10.5227  10.5496
    10.8695  10.8695  11.0663  11.7280  11.7280  13.3017  13.3017  13.5442
    14.6126  15.4222  15.4222  18.5132  23.1599  26.9501  26.9501  30.0451
    31.6786  31.6786  31.8332  34.0770  35.2659  35.2659  35.3977  38.0436

     occupation numbers 
     1.0000   1.0000   1.0000   1.0000   1.0000   1.0000   1.0000   1.0000
     1.0000   1.0000   1.0000   1.0000   1.0000   1.0000   1.0000   1.0000
     1.0000   1.0000   1.0000   1.0000   1.0000   1.0719   1.0719   0.9331
     0.0000   0.0000   0.0000   0.0000   0.0000   0.0000   0.0000   0.0000
     0.0000   0.0000   0.0000   0.0000   0.0000   0.0000   0.0000   0.0000

          k = 0.2480-0.0824-0.0824 (   920 PWs)   bands (ev):

   -82.8983 -79.7280 -46.3147 -46.3092 -46.2480 -43.2579 -43.2514 -43.2215
    -6.2564  -5.1987   5.9926   7.8542   8.1111   8.6931   9.7338   9.7640
    10.9175  11.2875  11.3643  11.9715  12.3347  13.2387  13.4670  13.5909
    14.8079  15.3048  16.2795  20.0065  22.8629  25.1960  27.4753  27.5688
    30.2823  30.2977  32.0395  34.3154  34.9342  36.5471  36.6839  37.2335

     occupation numbers 
     1.0000   1.0000   1.0000   1.0000   1.0000   1.0000   1.0000   1.0000
     1.0000   1.0000   1.0000   1.0000   1.0000   1.0000   1.0000   1.0000
     1.0000   1.0000   1.0000   1.0000   1.0000   1.0510   1.0419   0.8335
     0.0000   0.0000   0.0000   0.0000   0.0000   0.0000   0.0000   0.0000
     0.0000   0.0000   0.0000   0.0000   0.0000   0.0000   0.0000   0.0000

          k = 0.4959-0.1649-0.1649 (   913 PWs)   bands (ev):

   -82.8972 -79.7266 -46.3285 -46.3130 -46.2461 -43.2746 -43.2558 -43.2192
    -5.6843  -5.1426   6.8338   6.9705   7.4108   8.2360   8.7003   9.1040
    10.8228  11.3695  11.6833  12.2761  12.4408  12.9592  13.7588  13.8649
    14.8305  15.1081  18.8112  22.0108  22.3396  23.4602  24.8247  26.5545
    28.2862  28.8583  31.5302  32.7056  36.5056  37.7177  38.5905  40.5118

     occupation numbers 
     1.0000   1.0000   1.0000   1.0000   1.0000   1.0000   1.0000   1.0000
     1.0000   1.0000   1.0000   1.0000   1.0000   1.0000   1.0000   1.0000
     1.0000   1.0000   1.0000   1.0000   1.0000   1.0021   0.3882   0.1724
     0.0000   0.0000   0.0000   0.0000   0.0000   0.0000   0.0000   0.0000
     0.0000   0.0000   0.0000   0.0000   0.0000   0.0000   0.0000   0.0000

          k =-0.7439 0.2473 0.2473 (   906 PWs)   bands (ev):

   -82.8966 -79.7260 -46.3354 -46.3148 -46.2449 -43.2830 -43.2579 -43.2179
    -5.2472  -5.2327   6.4614   6.6419   7.7022   8.1584   8.2671   8.8869
    10.7782  11.3765  11.7032  12.5010  12.6865  12.7976  13.8376  13.9798
    15.0373  15.0382  20.4892  20.7678  22.8277  23.1182  24.6029  24.6770
    28.1539  28.5376  31.8429  31.9431  38.6723  38.9006  40.6106  40.6768

     occupation numbers 
     1.0000   1.0000   1.0000   1.0000   1.0000   1.0000   1.0000   1.0000
     1.0000   1.0000   1.0000   1.0000   1.0000   1.0000   1.0000   1.0000
     1.0000   1.0000   1.0000   1.0000   1.0000   1.0001   0.2180   0.0524
     0.0000   0.0000   0.0000   0.0000   0.0000   0.0000   0.0000   0.0000
     0.0000   0.0000   0.0000   0.0000   0.0000   0.0000   0.0000   0.0000

          k = 0.1655 0.1655-0.1649 (   919 PWs)   bands (ev):

   -82.8983 -79.7280 -46.3146 -46.3092 -46.2480 -43.2578 -43.2513 -43.2215
    -6.2316  -5.2307   6.0618   7.8675   8.2155   8.6786   9.5219   9.5644
    10.9893  11.1567  11.3024  12.3721  12.4445  13.1429  13.5266  13.6025
    15.0124  15.0860  16.1892  19.9429  22.9126  25.3754  26.9143  27.6581
    30.5717  30.6955  32.7154  33.6912  34.3870  34.5016  37.7596  38.2320

     occupation numbers 
     1.0000   1.0000   1.0000   1.0000   1.0000   1.0000   1.0000   1.0000
     1.0000   1.0000   1.0000   1.0000   1.0000   1.0000   1.0000   1.0000
     1.0000   1.0000   1.0000   1.0000   1.0000   1.0226   0.9642   0.8055
     0.0000   0.0000   0.0000   0.0000   0.0000   0.0000   0.0000   0.0000
     0.0000   0.0000   0.0000   0.0000   0.0000   0.0000   0.0000   0.0000

          k = 0.4135 0.0831-0.2473 (   921 PWs)   bands (ev):

   -82.8975 -79.7270 -46.3239 -46.3133 -46.2467 -43.2690 -43.2562 -43.2199
    -5.8068  -5.1904   6.6633   7.2255   7.8471   8.1997   8.7359   9.0595
    11.0447  11.3851  11.5205  12.0501  12.4729  13.3404  13.4345  13.8450
    14.8218  15.1139  18.2025  21.2953  22.9253  24.0995  25.2394  26.9655
    27.6217  29.4370  32.1135  33.3811  36.0406  36.1545  37.4225  41.6144

     occupation numbers 
     1.0000   1.0000   1.0000   1.0000   1.0000   1.0000   1.0000   1.0000
     1.0000   1.0000   1.0000   1.0000   1.0000   1.0000   1.0000   1.0000
     1.0000   1.0000   1.0000   1.0000   1.0000   1.0809   1.0662   0.2050
     0.0000   0.0000   0.0000   0.0000   0.0000   0.0000   0.0000   0.0000
     0.0000   0.0000   0.0000   0.0000   0.0000   0.0000   0.0000   0.0000

          k =-0.8263 0.4953 0.1649 (   911 PWs)   bands (ev):

   -82.8966 -79.7260 -46.3321 -46.3182 -46.2450 -43.2788 -43.2620 -43.2179
    -5.3340  -5.1478   6.6397   6.7290   7.6459   8.1861   8.3157   8.4341
    11.0874  11.4326  11.6034  12.2126  12.3966  13.2455  13.7189  13.9242
    14.9535  15.1477  20.3992  22.0119  22.2473  23.8252  24.0438  24.3765
    27.4111  28.2235  32.2950  34.2558  35.1030  37.4350  40.8539  41.9515

     occupation numbers 
     1.0000   1.0000   1.0000   1.0000   1.0000   1.0000   1.0000   1.0000
     1.0000   1.0000   1.0000   1.0000   1.0000   1.0000   1.0000   1.0000
     1.0000   1.0000   1.0000   1.0000   1.0000   1.0533   0.4921   0.0972
     0.0000   0.0000   0.0000   0.0000   0.0000   0.0000   0.0000   0.0000
     0.0000   0.0000   0.0000   0.0000   0.0000   0.0000   0.0000   0.0000

          k =-0.5784 0.4128 0.0824 (   917 PWs)   bands (ev):

   -82.8966 -79.7260 -46.3321 -46.3184 -46.2451 -43.2788 -43.2622 -43.2180
    -5.3536  -5.1296   6.4858   7.1561   7.6212   8.0955   8.1726   8.3399
    11.1395  11.4259  11.6398  12.1798  12.3879  13.2105  13.7236  13.9253
    14.8050  15.4000  20.1041  21.7109  23.2275  23.6098  23.7899  24.6550
    27.0119  28.2505  33.3095  33.7238  35.9596  36.4021  38.5347  41.5548

     occupation numbers 
     1.0000   1.0000   1.0000   1.0000   1.0000   1.0000   1.0000   1.0000
     1.0000   1.0000   1.0000   1.0000   1.0000   1.0000   1.0000   1.0000
     1.0000   1.0000   1.0000   1.0000   1.0000   1.0415   0.4793   0.0961
     0.0000   0.0000   0.0000   0.0000   0.0000   0.0000   0.0000   0.0000
     0.0000   0.0000   0.0000   0.0000   0.0000   0.0000   0.0000   0.0000

          k =-0.3304 0.3304-0.0000 (   919 PWs)   bands (ev):

   -82.8975 -79.7270 -46.3240 -46.3132 -46.2465 -43.2690 -43.2561 -43.2197
    -5.8520  -5.1399   6.7249   7.3681   7.6325   8.1827   8.7035   9.0181
    11.0945  11.4980  11.5009  11.9721  12.5257  13.3201  13.4369  13.8327
    14.8479  15.1971  17.9378  21.9690  22.2769  24.0803  25.4716  26.8560
    27.3590  29.9333  32.8260  34.2305  35.1328  35.2006  36.7105  41.2771

     occupation numbers 
     1.0000   1.0000   1.0000   1.0000   1.0000   1.0000   1.0000   1.0000
     1.0000   1.0000   1.0000   1.0000   1.0000   1.0000   1.0000   1.0000
     1.0000   1.0000   1.0000   1.0000   1.0000   1.0768   1.0648   0.2270
     0.0000   0.0000   0.0000   0.0000   0.0000   0.0000   0.0000   0.0000
     0.0000   0.0000   0.0000   0.0000   0.0000   0.0000   0.0000   0.0000

          k = 0.3311 0.3311-0.3297 (   921 PWs)   bands (ev):

   -82.8972 -79.7266 -46.3285 -46.3133 -46.2463 -43.2745 -43.2560 -43.2193
    -5.6066  -5.2252   6.4701   6.7816   8.1482   8.3302   8.6217   8.9693
    10.7383  11.3635  11.5183  12.4458  12.5762  13.0291  13.7616  13.8023
    15.1667  15.2319  18.1339  20.4072  23.2477  23.9116  24.6314  28.0478
    28.2060  28.9166  30.4693  33.4730  35.9619  36.0997  39.9061  40.2874

     occupation numbers 
     1.0000   1.0000   1.0000   1.0000   1.0000   1.0000   1.0000   1.0000
     1.0000   1.0000   1.0000   1.0000   1.0000   1.0000   1.0000   1.0000
     1.0000   1.0000   1.0000   1.0000   1.0000   1.0059   0.3813   0.2876
     0.0000   0.0000   0.0000   0.0000   0.0000   0.0000   0.0000   0.0000
     0.0000   0.0000   0.0000   0.0000   0.0000   0.0000   0.0000   0.0000

          k =-0.9088 0.7432 0.0824 (   909 PWs)   bands (ev):

   -82.8966 -79.7260 -46.3321 -46.3181 -46.2451 -43.2788 -43.2620 -43.2180
    -5.3018  -5.1761   6.0516   6.9278   8.0021   8.1429   8.2817   8.7656
    10.9443  11.3496  11.5374  12.3051  12.4670  13.3242  13.6913  13.9165
    15.0008  15.4132  19.5873  20.6126  23.0768  23.3397  24.3781  25.7914
    27.7458  28.3230  31.0657  34.4168  36.5950  37.6779  38.9498  41.1089

     occupation numbers 
     1.0000   1.0000   1.0000   1.0000   1.0000   1.0000   1.0000   1.0000
     1.0000   1.0000   1.0000   1.0000   1.0000   1.0000   1.0000   1.0000
     1.0000   1.0000   1.0000   1.0000   1.0000   1.0778   0.5676   0.1052
     0.0000   0.0000   0.0000   0.0000   0.0000   0.0000   0.0000   0.0000
     0.0000   0.0000   0.0000   0.0000   0.0000   0.0000   0.0000   0.0000

          k =-0.6608 0.6608 0.0000 (   908 PWs)   bands (ev):

   -82.8963 -79.7256 -46.3273 -46.3272 -46.2445 -43.2730 -43.2730 -43.2173
    -5.1506  -5.1504   6.7193   6.8646   7.3836   7.6745   8.2075   8.4006
    11.2866  11.4317  11.4721  12.2437  12.4790  13.6124  13.6795  13.7244
    15.0246  15.1913  21.9081  21.9890  22.1934  22.4929  23.4635  24.1345
    27.4215  28.4766  32.6304  34.1936  35.1438  36.5879  40.5516  42.3067

     occupation numbers 
     1.0000   1.0000   1.0000   1.0000   1.0000   1.0000   1.0000   1.0000
     1.0000   1.0000   1.0000   1.0000   1.0000   1.0000   1.0000   1.0000
     1.0000   1.0000   1.0000   1.0000   1.0000   0.7807   0.6003   0.4772
     0.0000   0.0000   0.0000   0.0000   0.0000   0.0000   0.0000   0.0000
     0.0000   0.0000   0.0000   0.0000   0.0000   0.0000   0.0000   0.0000

          k =-0.4966-0.4966 0.4946 (   924 PWs)   bands (ev):

   -82.8966 -79.7260 -46.3360 -46.3151 -46.2457 -43.2834 -43.2581 -43.2184
    -5.2497  -5.2185   5.5387   6.7796   8.0655   8.1027   9.2786   9.3158
    10.2033  11.3550  11.5923  12.1547  12.3805  13.1477  13.8474  13.9598
    15.5053  15.5712  18.5417  19.6442  23.0936  23.3550  25.4430  26.9951
    27.1168  29.3572  29.4443  34.1320  38.0636  38.1931  38.5792  40.7796

     occupation numbers 
     1.0000   1.0000   1.0000   1.0000   1.0000   1.0000   1.0000   1.0000
     1.0000   1.0000   1.0000   1.0000   1.0000   1.0000   1.0000   1.0000
     1.0000   1.0000   1.0000   1.0000   1.0000   1.0238   0.2009   0.0660
     0.0000   0.0000   0.0000   0.0000   0.0000   0.0000   0.0000   0.0000
     0.0000   0.0000   0.0000   0.0000   0.0000   0.0000   0.0000   0.0000

          k = 0.0831 0.0831 0.0831 (   929 PWs)   bands (ev):

   -82.8989 -79.7286 -46.3074 -46.3074 -46.2491 -43.2493 -43.2493 -43.2227
    -6.4369  -5.3302   5.7903   8.1025   8.1025   9.8828  10.1678  10.1678
    10.8899  10.8899  11.2126  12.0790  12.0790  13.2784  13.2784  13.4734
    15.1200  15.3265  15.3265  18.4736  23.3098  27.2375  27.2375  28.8697
    31.4533  31.4533  32.3199  33.8442  34.6594  34.6594  36.2834  37.2582

     occupation numbers 
     1.0000   1.0000   1.0000   1.0000   1.0000   1.0000   1.0000   1.0000
     1.0000   1.0000   1.0000   1.0000   1.0000   1.0000   1.0000   1.0000
     1.0000   1.0000   1.0000   1.0000   1.0000   1.0646   1.0646   1.0357
     0.0000   0.0000   0.0000   0.0000   0.0000   0.0000   0.0000   0.0000
     0.0000   0.0000   0.0000   0.0000   0.0000   0.0000   0.0000   0.0000

          k = 0.3311 0.0007 0.0007 (   920 PWs)   bands (ev):

   -82.8983 -79.7280 -46.3147 -46.3093 -46.2479 -43.2579 -43.2514 -43.2215
    -6.1542  -5.3263   6.2352   7.9359   8.1368   8.3348   9.7566   9.8184
    10.7764  11.3417  11.5425  11.8340  12.0616  13.3119  13.4303  13.5954
    14.4973  15.4169  17.0099  19.6918  23.3648  25.2917  27.4980  27.9150
    29.3513  29.9426  30.0420  35.0220  36.0706  36.3986  36.6742  38.8446

     occupation numbers 
     1.0000   1.0000   1.0000   1.0000   1.0000   1.0000   1.0000   1.0000
     1.0000   1.0000   1.0000   1.0000   1.0000   1.0000   1.0000   1.0000
     1.0000   1.0000   1.0000   1.0000   1.0000   1.0747   1.0685   0.8228
     0.0000   0.0000   0.0000   0.0000   0.0000   0.0000   0.0000   0.0000
     0.0000   0.0000   0.0000   0.0000   0.0000   0.0000   0.0000   0.0000

          k =-0.9088 0.4128 0.4128 (   906 PWs)   bands (ev):

   -82.8971 -79.7266 -46.3283 -46.3128 -46.2461 -43.2744 -43.2557 -43.2192
    -5.6172  -5.2119   6.4323   6.9019   7.8024   8.1601   9.1063   9.2880
    10.6253  11.3804  11.7603  12.0031  12.1608  13.1031  13.7404  13.8922
    14.6147  15.3325  19.3092  20.9826  22.8767  24.0467  25.0162  25.8335
    28.0925  29.1099  29.9123  34.3936  35.4140  38.9031  39.9512  40.8486

     occupation numbers 
     1.0000   1.0000   1.0000   1.0000   1.0000   1.0000   1.0000   1.0000
     1.0000   1.0000   1.0000   1.0000   1.0000   1.0000   1.0000   1.0000
     1.0000   1.0000   1.0000   1.0000   1.0000   1.0148   0.4349   0.1338
     0.0000   0.0000   0.0000   0.0000   0.0000   0.0000   0.0000   0.0000
     0.0000   0.0000   0.0000   0.0000   0.0000   0.0000   0.0000   0.0000

          k =-0.6608 0.3304 0.3304 (   908 PWs)   bands (ev):

   -82.8966 -79.7260 -46.3357 -46.3147 -46.2450 -43.2832 -43.2579 -43.2179
    -5.2485  -5.2284   6.0614   6.8017   7.8775   8.2037   8.3623   8.9962
    10.6890  11.3732  11.6734  12.4330  12.5443  12.9171  13.8408  13.9754
    15.1493  15.1691  19.9502  20.4000  22.8744  23.3553  24.5957  25.4556
    27.6872  28.9214  30.4812  33.7521  37.9269  38.2313  39.9127  40.2247

     occupation numbers 
     1.0000   1.0000   1.0000   1.0000   1.0000   1.0000   1.0000   1.0000
     1.0000   1.0000   1.0000   1.0000   1.0000   1.0000   1.0000   1.0000
     1.0000   1.0000   1.0000   1.0000   1.0000   1.0011   0.2122   0.0552
     0.0000   0.0000   0.0000   0.0000   0.0000   0.0000   0.0000   0.0000
     0.0000   0.0000   0.0000   0.0000   0.0000   0.0000   0.0000   0.0000

          k =-0.4128 0.2480 0.2480 (   913 PWs)   bands (ev):

   -82.8972 -79.7266 -46.3284 -46.3130 -46.2461 -43.2745 -43.2558 -43.2191
    -5.6805  -5.1476   6.7815   6.9764   7.5390   8.3412   8.5405   8.9333
    10.8648  11.3646  11.5833  12.5301  12.5881  12.9167  13.7758  13.8244
    15.0137  15.1470  18.2770  21.1610  22.9886  23.8141  24.2907  27.7562
    28.2971  28.7320  31.4047  33.4227  35.2583  37.1467  38.1333  40.8756

     occupation numbers 
     1.0000   1.0000   1.0000   1.0000   1.0000   1.0000   1.0000   1.0000
     1.0000   1.0000   1.0000   1.0000   1.0000   1.0000   1.0000   1.0000
     1.0000   1.0000   1.0000   1.0000   1.0000   1.0011   0.3471   0.2427
     0.0000   0.0000   0.0000   0.0000   0.0000   0.0000   0.0000   0.0000
     0.0000   0.0000   0.0000   0.0000   0.0000   0.0000   0.0000   0.0000

          k = 0.2486 0.2486-0.0818 (   921 PWs)   bands (ev):

   -82.8983 -79.7280 -46.3147 -46.3094 -46.2480 -43.2579 -43.2515 -43.2215
    -6.0847  -5.4101   6.4200   7.9268   8.2988   8.4077   9.2154   9.4385
    10.9574  11.1136  11.4280  12.2388  12.5821  13.1174  13.5619  13.5841
    14.8981  14.9740  16.9139  19.5316  23.5807  25.7764  26.2910  28.0959
    28.7951  30.6402  32.5563  32.8364  33.8040  35.9650  37.7991  38.8279

     occupation numbers 
     1.0000   1.0000   1.0000   1.0000   1.0000   1.0000   1.0000   1.0000
     1.0000   1.0000   1.0000   1.0000   1.0000   1.0000   1.0000   1.0000
     1.0000   1.0000   1.0000   1.0000   1.0000   1.0173   0.8980   0.8492
     0.0000   0.0000   0.0000   0.0000   0.0000   0.0000   0.0000   0.0000
     0.0000   0.0000   0.0000   0.0000   0.0000   0.0000   0.0000   0.0000

          k =-0.9912 0.6608 0.3304 (   910 PWs)   bands (ev):

   -82.8974 -79.7270 -46.3237 -46.3132 -46.2465 -43.2688 -43.2561 -43.2198
    -5.6816  -5.3260   6.6155   6.9629   8.2613   8.3128   8.6615   9.1434
    10.9586  11.2201  11.5835  12.0313  12.4283  13.3850  13.4374  13.8686
    14.7251  15.0678  18.8114  20.4231  23.7415  24.3550  24.7917  26.5660
    28.1769  28.8763  31.4092  32.2557  37.4555  37.6127  38.6241  40.7574

     occupation numbers 
     1.0000   1.0000   1.0000   1.0000   1.0000   1.0000   1.0000   1.0000
     1.0000   1.0000   1.0000   1.0000   1.0000   1.0000   1.0000   1.0000
     1.0000   1.0000   1.0000   1.0000   1.0000   1.0824   1.0645   0.1668
     0.0000   0.0000   0.0000   0.0000   0.0000   0.0000   0.0000   0.0000
     0.0000   0.0000   0.0000   0.0000   0.0000   0.0000   0.0000   0.0000

          k =-0.7432 0.5784 0.2480 (   913 PWs)   bands (ev):

   -82.8966 -79.7260 -46.3323 -46.3182 -46.2451 -43.2789 -43.2621 -43.2181
    -5.2885  -5.1899   6.2918   6.6998   7.7780   8.2486   8.3642   8.7588
    10.9524  11.3934  11.5268  12.3547  12.3810  13.3176  13.7108  13.9173
    15.0150  15.1331  20.4108  20.8378  22.5659  23.4517  24.5856  24.8068
    27.7916  28.4497  31.1563  33.6673  36.5655  38.9011  40.0344  41.2142

     occupation numbers 
     1.0000   1.0000   1.0000   1.0000   1.0000   1.0000   1.0000   1.0000
     1.0000   1.0000   1.0000   1.0000   1.0000   1.0000   1.0000   1.0000
     1.0000   1.0000   1.0000   1.0000   1.0000   1.0762   0.5140   0.1043
     0.0000   0.0000   0.0000   0.0000   0.0000   0.0000   0.0000   0.0000
     0.0000   0.0000   0.0000   0.0000   0.0000   0.0000   0.0000   0.0000

          k =-0.4953 0.4959 0.1655 (   913 PWs)   bands (ev):

   -82.8966 -79.7260 -46.3320 -46.3183 -46.2451 -43.2788 -43.2621 -43.2180
    -5.3416  -5.1397   6.2365   7.1088   7.9619   8.0960   8.2112   8.3565
    11.0984  11.3938  11.5789  12.2844  12.3564  13.2547  13.7097  13.9225
    14.8362  15.5375  19.7010  21.1202  23.2927  23.4215  24.1503  25.3582
    27.3077  28.0566  32.1881  35.0861  36.1062  36.7264  37.4720  41.3331

     occupation numbers 
     1.0000   1.0000   1.0000   1.0000   1.0000   1.0000   1.0000   1.0000
     1.0000   1.0000   1.0000   1.0000   1.0000   1.0000   1.0000   1.0000
     1.0000   1.0000   1.0000   1.0000   1.0000   1.0565   0.5170   0.0989
     0.0000   0.0000   0.0000   0.0000   0.0000   0.0000   0.0000   0.0000
     0.0000   0.0000   0.0000   0.0000   0.0000   0.0000   0.0000   0.0000

          k =-0.5790-0.5790 0.7426 (   910 PWs)   bands (ev):

   -82.8972 -79.7266 -46.3284 -46.3129 -46.2462 -43.2745 -43.2557 -43.2193
    -5.4808  -5.3533   6.2441   6.7110   8.2335   8.3742   9.0351   9.1765
    10.5137  11.3776  11.5025  12.1687  12.4245  13.1597  13.7480  13.8079
    14.9842  15.3856  18.6739  19.9241  23.4899  23.7452  25.3850  27.0514
    27.9005  29.1167  29.6966  34.5759  35.1990  37.1304  40.6413  40.9760

     occupation numbers 
     1.0000   1.0000   1.0000   1.0000   1.0000   1.0000   1.0000   1.0000
     1.0000   1.0000   1.0000   1.0000   1.0000   1.0000   1.0000   1.0000
     1.0000   1.0000   1.0000   1.0000   1.0000   1.0267   0.4155   0.2757
     0.0000   0.0000   0.0000   0.0000   0.0000   0.0000   0.0000   0.0000
     0.0000   0.0000   0.0000   0.0000   0.0000   0.0000   0.0000   0.0000

          k =-0.3311-0.6615 0.6601 (   911 PWs)   bands (ev):

   -82.8966 -79.7260 -46.3322 -46.3181 -46.2453 -43.2789 -43.2620 -43.2181
    -5.2463  -5.2302   6.0555   6.7819   7.9020   8.2009   8.3679   8.9634
    10.8430  11.3420  11.5234  12.3375  12.4888  13.3525  13.6966  13.9133
    15.0883  15.2093  19.9570  20.4013  22.8406  23.3083  24.5962  25.4606
    27.7907  28.9875  30.3961  33.6448  37.8307  38.3254  39.9488  40.3359

     occupation numbers 
     1.0000   1.0000   1.0000   1.0000   1.0000   1.0000   1.0000   1.0000
     1.0000   1.0000   1.0000   1.0000   1.0000   1.0000   1.0000   1.0000
     1.0000   1.0000   1.0000   1.0000   1.0000   1.0825   0.5529   0.1086
     0.0000   0.0000   0.0000   0.0000   0.0000   0.0000   0.0000   0.0000
     0.0000   0.0000   0.0000   0.0000   0.0000   0.0000   0.0000   0.0000

          k =-0.0831-0.7439 0.5777 (   910 PWs)   bands (ev):

   -82.8963 -79.7256 -46.3273 -46.3272 -46.2447 -43.2731 -43.2730 -43.2174
    -5.1505  -5.1505   6.7555   6.8073   7.4766   7.5845   8.2425   8.3808
    11.2878  11.4236  11.4793  12.2386  12.4827  13.6131  13.6803  13.7214
    15.0361  15.1794  21.8800  22.0843  22.1067  22.4914  23.7628  23.8043
    27.8725  28.0204  33.2122  33.3443  35.8995  36.1045  41.2386  41.2883

     occupation numbers 
     1.0000   1.0000   1.0000   1.0000   1.0000   1.0000   1.0000   1.0000
     1.0000   1.0000   1.0000   1.0000   1.0000   1.0000   1.0000   1.0000
     1.0000   1.0000   1.0000   1.0000   1.0000   0.7789   0.5979   0.4853
     0.0000   0.0000   0.0000   0.0000   0.0000   0.0000   0.0000   0.0000
     0.0000   0.0000   0.0000   0.0000   0.0000   0.0000   0.0000   0.0000

          k =-0.4135-0.4135 0.5777 (   913 PWs)   bands (ev):

   -82.8966 -79.7260 -46.3358 -46.3149 -46.2453 -43.2832 -43.2580 -43.2181
    -5.2495  -5.2215   5.6796   6.8016   8.0544   8.1073   8.9294   9.1861
    10.4309  11.3629  11.6189  12.2796  12.3865  13.0794  13.8459  13.9660
    15.4009  15.4095  18.9960  19.8723  23.0282  23.3787  25.1728  26.5381
    27.1892  29.2460  29.6762  34.8616  36.6213  38.0745  39.5149  40.9923

     occupation numbers 
     1.0000   1.0000   1.0000   1.0000   1.0000   1.0000   1.0000   1.0000
     1.0000   1.0000   1.0000   1.0000   1.0000   1.0000   1.0000   1.0000
     1.0000   1.0000   1.0000   1.0000   1.0000   1.0112   0.2034   0.0615
     0.0000   0.0000   0.0000   0.0000   0.0000   0.0000   0.0000   0.0000
     0.0000   0.0000   0.0000   0.0000   0.0000   0.0000   0.0000   0.0000

          k = 0.1662 0.1662 0.1662 (   939 PWs)   bands (ev):

   -82.8989 -79.7286 -46.3078 -46.3078 -46.2493 -43.2495 -43.2495 -43.2231
    -6.2275  -5.5922   6.4818   8.3116   8.3116   8.7093   9.6141   9.6141
    10.9209  10.9209  11.2853  12.6019  12.6019  13.2291  13.2291  13.3315
    15.1079  15.1079  16.1967  18.1433  23.9481  26.9872  28.0474  28.0474
    30.5567  30.5567  32.7170  33.4150  34.3595  34.3595  35.9797  35.9797

     occupation numbers 
     1.0000   1.0000   1.0000   1.0000   1.0000   1.0000   1.0000   1.0000
     1.0000   1.0000   1.0000   1.0000   1.0000   1.0000   1.0000   1.0000
     1.0000   1.0000   1.0000   1.0000   1.0000   1.0477   1.0477   1.0793
     0.0000   0.0000   0.0000   0.0000   0.0000   0.0000   0.0000   0.0000
     0.0000   0.0000   0.0000   0.0000   0.0000   0.0000   0.0000   0.0000

          k =-1.0736 0.5784 0.5784 (   922 PWs)   bands (ev):

   -82.8983 -79.7280 -46.3147 -46.3092 -46.2481 -43.2579 -43.2514 -43.2217
    -5.9453  -5.5673   6.7215   7.5260   8.2834   8.5461   9.3442   9.4823
    10.7768  11.2170  11.6651  11.9747  12.1379  13.2861  13.4463  13.6089
    14.4131  15.3353  17.9240  18.9529  24.3890  25.7432  26.4300  27.6029
    28.6834  29.4517  30.4591  33.6421  36.0532  36.8771  37.2664  38.4566

     occupation numbers 
     1.0000   1.0000   1.0000   1.0000   1.0000   1.0000   1.0000   1.0000
     1.0000   1.0000   1.0000   1.0000   1.0000   1.0000   1.0000   1.0000
     1.0000   1.0000   1.0000   1.0000   1.0000   1.0671   1.0588   0.7894
     0.0000   0.0000   0.0000   0.0000   0.0000   0.0000   0.0000   0.0000
     0.0000   0.0000   0.0000   0.0000   0.0000   0.0000   0.0000   0.0000

          k =-0.8257 0.4959 0.4959 (   898 PWs)   bands (ev):

   -82.8971 -79.7266 -46.3282 -46.3126 -46.2459 -43.2743 -43.2555 -43.2191
    -5.4965  -5.3362   6.2214   6.7767   8.1587   8.1734   9.3324   9.3807
    10.4029  11.3908  11.5853  12.0234  12.1591  13.1936  13.7399  13.8517
    14.6935  15.4587  19.6261  19.7199  23.2676  24.2689  25.4009  25.9061
    27.9313  29.2106  29.2726  34.9803  36.1477  36.7417  40.8353  41.4907

     occupation numbers 
     1.0000   1.0000   1.0000   1.0000   1.0000   1.0000   1.0000   1.0000
     1.0000   1.0000   1.0000   1.0000   1.0000   1.0000   1.0000   1.0000
     1.0000   1.0000   1.0000   1.0000   1.0000   1.0362   0.4362   0.1936
     0.0000   0.0000   0.0000   0.0000   0.0000   0.0000   0.0000   0.0000
     0.0000   0.0000   0.0000   0.0000   0.0000   0.0000   0.0000   0.0000

          k =-0.6615-0.6615 0.9905 (   920 PWs)   bands (ev):

   -82.8983 -79.7280 -46.3145 -46.3094 -46.2481 -43.2578 -43.2515 -43.2217
    -5.8452  -5.6744   6.9367   7.3652   8.4604   8.6826   9.0450   9.1726
    10.8657  11.1416  11.6266  12.0297  12.4629  13.1915  13.5144  13.5745
    14.6396  15.1174  17.9410  18.8171  24.8427  25.4959  26.5032  26.8687
    28.7204  29.8606  31.4517  32.7299  35.1609  36.6746  37.5562  38.5360

     occupation numbers 
     1.0000   1.0000   1.0000   1.0000   1.0000   1.0000   1.0000   1.0000
     1.0000   1.0000   1.0000   1.0000   1.0000   1.0000   1.0000   1.0000
     1.0000   1.0000   1.0000   1.0000   1.0000   1.0356   0.9838   0.8709
     0.0000   0.0000   0.0000   0.0000   0.0000   0.0000   0.0000   0.0000
     0.0000   0.0000   0.0000   0.0000   0.0000   0.0000   0.0000   0.0000

          k =-0.4135-0.7439 0.9081 (   912 PWs)   bands (ev):

   -82.8974 -79.7270 -46.3236 -46.3134 -46.2466 -43.2687 -43.2563 -43.2199
    -5.5083  -5.5046   6.6413   6.8046   8.3643   8.5146   8.6522   9.0753
    10.9640  11.1136  11.6467  11.9215  12.4466  13.4109  13.4319  13.8724
    14.7174  15.0405  19.5092  19.6262  24.1626  24.4419  25.3038  25.3911
    28.5650  28.8141  31.4261  31.4373  38.5958  38.6102  39.2520  39.4220

     occupation numbers 
     1.0000   1.0000   1.0000   1.0000   1.0000   1.0000   1.0000   1.0000
     1.0000   1.0000   1.0000   1.0000   1.0000   1.0000   1.0000   1.0000
     1.0000   1.0000   1.0000   1.0000   1.0000   1.0768   1.0676   0.1611
     0.0000   0.0000   0.0000   0.0000   0.0000   0.0000   0.0000   0.0000
     0.0000   0.0000   0.0000   0.0000   0.0000   0.0000   0.0000   0.0000

          k =-0.2493-0.2493-0.2493 (   954 PWs)   bands (ev):

   -82.8989 -79.7287 -46.3081 -46.3081 -46.2497 -43.2498 -43.2498 -43.2234
    -5.9317  -5.9139   7.3906   7.6158   8.4792   8.4792   9.3150   9.3150
    10.9359  10.9359  11.3001  12.8434  12.8434  13.2018  13.2018  13.2603
    14.9756  14.9756  17.2050  17.4306  25.0896  25.3748  29.1419  29.1419
    29.3458  29.3458  33.0107  33.0572  34.8048  34.8048  35.0329  35.0329

     occupation numbers 
     1.0000   1.0000   1.0000   1.0000   1.0000   1.0000   1.0000   1.0000
     1.0000   1.0000   1.0000   1.0000   1.0000   1.0000   1.0000   1.0000
     1.0000   1.0000   1.0000   1.0003   1.0003   1.0387   1.0387   1.0584
     0.0000   0.0000   0.0000   0.0000   0.0000   0.0000   0.0000   0.0000
     0.0000   0.0000   0.0000   0.0000   0.0000   0.0000   0.0000   0.0000

 ------ SPIN DOWN ----------


          k = 0.0000 0.0000 0.0000 (   923 PWs)   bands (ev):

   -82.8987 -79.7288 -46.3073 -46.3073 -46.2488 -43.2495 -43.2495 -43.2228
    -6.5111  -5.2292   5.5447   8.0243   8.0243  10.5227  10.5227  10.5496
    10.8696  10.8696  11.0664  11.7280  11.7280  13.3016  13.3016  13.5440
    14.6126  15.4221  15.4221  18.5132  23.1599  26.9501  26.9501  30.0451
    31.6786  31.6786  31.8332  34.0770  35.2659  35.2659  35.3977  38.0436

     occupation numbers 
     1.0000   1.0000   1.0000   1.0000   1.0000   1.0000   1.0000   1.0000
     1.0000   1.0000   1.0000   1.0000   1.0000   1.0000   1.0000   1.0000
     1.0000   1.0000   1.0000   1.0000   1.0000   1.0719   1.0719   0.9333
     0.0000   0.0000   0.0000   0.0000   0.0000   0.0000   0.0000   0.0000
     0.0000   0.0000   0.0000   0.0000   0.0000   0.0000   0.0000   0.0000

          k = 0.2480-0.0824-0.0824 (   920 PWs)   bands (ev):

   -82.8981 -79.7281 -46.3145 -46.3090 -46.2479 -43.2580 -43.2516 -43.2217
    -6.2564  -5.1987   5.9926   7.8542   8.1111   8.6931   9.7338   9.7640
    10.9177  11.2876  11.3644  11.9715  12.3347  13.2385  13.4669  13.5907
    14.8078  15.3047  16.2795  20.0065  22.8629  25.1960  27.4753  27.5688
    30.2823  30.2977  32.0395  34.3154  34.9342  36.5471  36.6839  37.2335

     occupation numbers 
     1.0000   1.0000   1.0000   1.0000   1.0000   1.0000   1.0000   1.0000
     1.0000   1.0000   1.0000   1.0000   1.0000   1.0000   1.0000   1.0000
     1.0000   1.0000   1.0000   1.0000   1.0000   1.0509   1.0420   0.8338
     0.0000   0.0000   0.0000   0.0000   0.0000   0.0000   0.0000   0.0000
     0.0000   0.0000   0.0000   0.0000   0.0000   0.0000   0.0000   0.0000

          k = 0.4959-0.1649-0.1649 (   913 PWs)   bands (ev):

   -82.8970 -79.7268 -46.3283 -46.3128 -46.2459 -43.2748 -43.2560 -43.2194
    -5.6843  -5.1426   6.8338   6.9705   7.4108   8.2360   8.7003   9.1040
    10.8229  11.3697  11.6834  12.2762  12.4409  12.9591  13.7587  13.8648
    14.8304  15.1080  18.8112  22.0108  22.3396  23.4602  24.8247  26.5545
    28.2863  28.8582  31.5302  32.7056  36.5056  37.7177  38.5905  40.5118

     occupation numbers 
     1.0000   1.0000   1.0000   1.0000   1.0000   1.0000   1.0000   1.0000
     1.0000   1.0000   1.0000   1.0000   1.0000   1.0000   1.0000   1.0000
     1.0000   1.0000   1.0000   1.0000   1.0000   1.0021   0.3885   0.1726
     0.0000   0.0000   0.0000   0.0000   0.0000   0.0000   0.0000   0.0000
     0.0000   0.0000   0.0000   0.0000   0.0000   0.0000   0.0000   0.0000

          k =-0.7439 0.2473 0.2473 (   906 PWs)   bands (ev):

   -82.8964 -79.7261 -46.3353 -46.3146 -46.2447 -43.2831 -43.2581 -43.2181
    -5.2472  -5.2327   6.4614   6.6419   7.7022   8.1584   8.2671   8.8869
    10.7783  11.3767  11.7033  12.5011  12.6866  12.7975  13.8375  13.9797
    15.0371  15.0381  20.4892  20.7678  22.8277  23.1182  24.6029  24.6770
    28.1539  28.5376  31.8429  31.9431  38.6723  38.9006  40.6106  40.6768

     occupation numbers 
     1.0000   1.0000   1.0000   1.0000   1.0000   1.0000   1.0000   1.0000
     1.0000   1.0000   1.0000   1.0000   1.0000   1.0000   1.0000   1.0000
     1.0000   1.0000   1.0000   1.0000   1.0000   1.0001   0.2183   0.0524
     0.0000   0.0000   0.0000   0.0000   0.0000   0.0000   0.0000   0.0000
     0.0000   0.0000   0.0000   0.0000   0.0000   0.0000   0.0000   0.0000

          k = 0.1655 0.1655-0.1649 (   919 PWs)   bands (ev):

   -82.8981 -79.7281 -46.3144 -46.3090 -46.2479 -43.2580 -43.2515 -43.2217
    -6.2316  -5.2307   6.0618   7.8675   8.2155   8.6786   9.5220   9.5644
    10.9894  11.1569  11.3025  12.3722  12.4445  13.1427  13.5265  13.6023
    15.0123  15.0858  16.1892  19.9429  22.9126  25.3754  26.9143  27.6581
    30.5717  30.6955  32.7154  33.6912  34.3870  34.5016  37.7596  38.2320

     occupation numbers 
     1.0000   1.0000   1.0000   1.0000   1.0000   1.0000   1.0000   1.0000
     1.0000   1.0000   1.0000   1.0000   1.0000   1.0000   1.0000   1.0000
     1.0000   1.0000   1.0000   1.0000   1.0000   1.0226   0.9644   0.8058
     0.0000   0.0000   0.0000   0.0000   0.0000   0.0000   0.0000   0.0000
     0.0000   0.0000   0.0000   0.0000   0.0000   0.0000   0.0000   0.0000

          k = 0.4135 0.0831-0.2473 (   921 PWs)   bands (ev):

   -82.8973 -79.7271 -46.3237 -46.3131 -46.2466 -43.2692 -43.2564 -43.2200
    -5.8068  -5.1904   6.6633   7.2255   7.8471   8.1997   8.7359   9.0595
    11.0449  11.3852  11.5206  12.0502  12.4730  13.3403  13.4344  13.8449
    14.8217  15.1137  18.2025  21.2953  22.9253  24.0995  25.2394  26.9655
    27.6216  29.4370  32.1135  33.3811  36.0406  36.1545  37.4225  41.6144

     occupation numbers 
     1.0000   1.0000   1.0000   1.0000   1.0000   1.0000   1.0000   1.0000
     1.0000   1.0000   1.0000   1.0000   1.0000   1.0000   1.0000   1.0000
     1.0000   1.0000   1.0000   1.0000   1.0000   1.0809   1.0663   0.2052
     0.0000   0.0000   0.0000   0.0000   0.0000   0.0000   0.0000   0.0000
     0.0000   0.0000   0.0000   0.0000   0.0000   0.0000   0.0000   0.0000

          k =-0.8263 0.4953 0.1649 (   911 PWs)   bands (ev):

   -82.8964 -79.7261 -46.3319 -46.3180 -46.2448 -43.2790 -43.2622 -43.2181
    -5.3340  -5.1478   6.6397   6.7290   7.6459   8.1862   8.3157   8.4341
    11.0875  11.4327  11.6035  12.2127  12.3967  13.2454  13.7187  13.9240
    14.9534  15.1476  20.3992  22.0119  22.2473  23.8252  24.0439  24.3765
    27.4111  28.2235  32.2950  34.2558  35.1030  37.4350  40.8539  41.9515

     occupation numbers 
     1.0000   1.0000   1.0000   1.0000   1.0000   1.0000   1.0000   1.0000
     1.0000   1.0000   1.0000   1.0000   1.0000   1.0000   1.0000   1.0000
     1.0000   1.0000   1.0000   1.0000   1.0000   1.0533   0.4924   0.0973
     0.0000   0.0000   0.0000   0.0000   0.0000   0.0000   0.0000   0.0000
     0.0000   0.0000   0.0000   0.0000   0.0000   0.0000   0.0000   0.0000

          k =-0.5784 0.4128 0.0824 (   917 PWs)   bands (ev):

   -82.8964 -79.7261 -46.3319 -46.3182 -46.2450 -43.2790 -43.2624 -43.2182
    -5.3536  -5.1296   6.4859   7.1561   7.6212   8.0956   8.1726   8.3399
    11.1396  11.4260  11.6399  12.1799  12.3880  13.2104  13.7235  13.9251
    14.8049  15.3999  20.1041  21.7109  23.2275  23.6098  23.7899  24.6550
    27.0119  28.2505  33.3096  33.7238  35.9596  36.4021  38.5347  41.5549

     occupation numbers 
     1.0000   1.0000   1.0000   1.0000   1.0000   1.0000   1.0000   1.0000
     1.0000   1.0000   1.0000   1.0000   1.0000   1.0000   1.0000   1.0000
     1.0000   1.0000   1.0000   1.0000   1.0000   1.0415   0.4796   0.0962
     0.0000   0.0000   0.0000   0.0000   0.0000   0.0000   0.0000   0.0000
     0.0000   0.0000   0.0000   0.0000   0.0000   0.0000   0.0000   0.0000

          k =-0.3304 0.3304-0.0000 (   919 PWs)   bands (ev):

   -82.8973 -79.7271 -46.3238 -46.3130 -46.2464 -43.2692 -43.2563 -43.2199
    -5.8520  -5.1399   6.7249   7.3682   7.6325   8.1828   8.7036   9.0181
    11.0946  11.4981  11.5010  11.9722  12.5258  13.3200  13.4368  13.8326
    14.8478  15.1970  17.9378  21.9690  22.2769  24.0803  25.4716  26.8560
    27.3590  29.9333  32.8260  34.2305  35.1328  35.2006  36.7105  41.2771

     occupation numbers 
     1.0000   1.0000   1.0000   1.0000   1.0000   1.0000   1.0000   1.0000
     1.0000   1.0000   1.0000   1.0000   1.0000   1.0000   1.0000   1.0000
     1.0000   1.0000   1.0000   1.0000   1.0000   1.0768   1.0649   0.2272
     0.0000   0.0000   0.0000   0.0000   0.0000   0.0000   0.0000   0.0000
     0.0000   0.0000   0.0000   0.0000   0.0000   0.0000   0.0000   0.0000

          k = 0.3311 0.3311-0.3297 (   921 PWs)   bands (ev):

   -82.8970 -79.7268 -46.3283 -46.3131 -46.2461 -43.2747 -43.2562 -43.2194
    -5.6066  -5.2252   6.4701   6.7816   8.1482   8.3303   8.6217   8.9693
    10.7384  11.3637  11.5184  12.4459  12.5762  13.0290  13.7615  13.8022
    15.1666  15.2317  18.1339  20.4072  23.2477  23.9116  24.6314  28.0478
    28.2060  28.9166  30.4693  33.4730  35.9619  36.0997  39.9061  40.2874

     occupation numbers 
     1.0000   1.0000   1.0000   1.0000   1.0000   1.0000   1.0000   1.0000
     1.0000   1.0000   1.0000   1.0000   1.0000   1.0000   1.0000   1.0000
     1.0000   1.0000   1.0000   1.0000   1.0000   1.0058   0.3816   0.2879
     0.0000   0.0000   0.0000   0.0000   0.0000   0.0000   0.0000   0.0000
     0.0000   0.0000   0.0000   0.0000   0.0000   0.0000   0.0000   0.0000

          k =-0.9088 0.7432 0.0824 (   909 PWs)   bands (ev):

   -82.8964 -79.7261 -46.3319 -46.3179 -46.2449 -43.2790 -43.2622 -43.2181
    -5.3018  -5.1761   6.0516   6.9278   8.0021   8.1429   8.2817   8.7656
    10.9444  11.3497  11.5376  12.3052  12.4671  13.3241  13.6912  13.9164
    15.0007  15.4131  19.5873  20.6126  23.0768  23.3397  24.3781  25.7914
    27.7458  28.3230  31.0657  34.4168  36.5950  37.6779  38.9498  41.1089

     occupation numbers 
     1.0000   1.0000   1.0000   1.0000   1.0000   1.0000   1.0000   1.0000
     1.0000   1.0000   1.0000   1.0000   1.0000   1.0000   1.0000   1.0000
     1.0000   1.0000   1.0000   1.0000   1.0000   1.0777   0.5679   0.1053
     0.0000   0.0000   0.0000   0.0000   0.0000   0.0000   0.0000   0.0000
     0.0000   0.0000   0.0000   0.0000   0.0000   0.0000   0.0000   0.0000

          k =-0.6608 0.6608 0.0000 (   908 PWs)   bands (ev):

   -82.8961 -79.7258 -46.3271 -46.3270 -46.2444 -43.2732 -43.2732 -43.2175
    -5.1506  -5.1504   6.7193   6.8646   7.3837   7.6745   8.2075   8.4006
    11.2868  11.4319  11.4722  12.2438  12.4791  13.6123  13.6794  13.7243
    15.0245  15.1912  21.9082  21.9890  22.1934  22.4929  23.4635  24.1345
    27.4215  28.4766  32.6304  34.1936  35.1438  36.5879  40.5516  42.3067

     occupation numbers 
     1.0000   1.0000   1.0000   1.0000   1.0000   1.0000   1.0000   1.0000
     1.0000   1.0000   1.0000   1.0000   1.0000   1.0000   1.0000   1.0000
     1.0000   1.0000   1.0000   1.0000   1.0000   0.7811   0.6006   0.4775
     0.0000   0.0000   0.0000   0.0000   0.0000   0.0000   0.0000   0.0000
     0.0000   0.0000   0.0000   0.0000   0.0000   0.0000   0.0000   0.0000

          k =-0.4966-0.4966 0.4946 (   924 PWs)   bands (ev):

   -82.8964 -79.7262 -46.3358 -46.3149 -46.2455 -43.2835 -43.2583 -43.2186
    -5.2497  -5.2185   5.5387   6.7796   8.0656   8.1027   9.2786   9.3158
    10.2034  11.3552  11.5925  12.1548  12.3806  13.1477  13.8472  13.9597
    15.5052  15.5711  18.5417  19.6442  23.0935  23.3550  25.4430  26.9951
    27.1169  29.3572  29.4443  34.1320  38.0636  38.1931  38.5792  40.7796

     occupation numbers 
     1.0000   1.0000   1.0000   1.0000   1.0000   1.0000   1.0000   1.0000
     1.0000   1.0000   1.0000   1.0000   1.0000   1.0000   1.0000   1.0000
     1.0000   1.0000   1.0000   1.0000   1.0000   1.0238   0.2011   0.0661
     0.0000   0.0000   0.0000   0.0000   0.0000   0.0000   0.0000   0.0000
     0.0000   0.0000   0.0000   0.0000   0.0000   0.0000   0.0000   0.0000

          k = 0.0831 0.0831 0.0831 (   929 PWs)   bands (ev):

   -82.8987 -79.7288 -46.3072 -46.3072 -46.2489 -43.2494 -43.2494 -43.2229
    -6.4369  -5.3302   5.7903   8.1025   8.1025   9.8828  10.1678  10.1678
    10.8901  10.8901  11.2127  12.0790  12.0790  13.2782  13.2782  13.4733
    15.1200  15.3264  15.3264  18.4736  23.3098  27.2375  27.2375  28.8697
    31.4533  31.4533  32.3199  33.8442  34.6594  34.6594  36.2834  37.2582

     occupation numbers 
     1.0000   1.0000   1.0000   1.0000   1.0000   1.0000   1.0000   1.0000
     1.0000   1.0000   1.0000   1.0000   1.0000   1.0000   1.0000   1.0000
     1.0000   1.0000   1.0000   1.0000   1.0000   1.0645   1.0645   1.0358
     0.0000   0.0000   0.0000   0.0000   0.0000   0.0000   0.0000   0.0000
     0.0000   0.0000   0.0000   0.0000   0.0000   0.0000   0.0000   0.0000

          k = 0.3311 0.0007 0.0007 (   920 PWs)   bands (ev):

   -82.8981 -79.7281 -46.3145 -46.3091 -46.2477 -43.2581 -43.2516 -43.2216
    -6.1542  -5.3263   6.2352   7.9360   8.1368   8.3348   9.7567   9.8184
    10.7765  11.3418  11.5426  11.8340  12.0617  13.3118  13.4302  13.5952
    14.4972  15.4168  17.0099  19.6918  23.3648  25.2917  27.4980  27.9150
    29.3513  29.9426  30.0420  35.0220  36.0706  36.3986  36.6742  38.8446

     occupation numbers 
     1.0000   1.0000   1.0000   1.0000   1.0000   1.0000   1.0000   1.0000
     1.0000   1.0000   1.0000   1.0000   1.0000   1.0000   1.0000   1.0000
     1.0000   1.0000   1.0000   1.0000   1.0000   1.0747   1.0685   0.8231
     0.0000   0.0000   0.0000   0.0000   0.0000   0.0000   0.0000   0.0000
     0.0000   0.0000   0.0000   0.0000   0.0000   0.0000   0.0000   0.0000

          k =-0.9088 0.4128 0.4128 (   906 PWs)   bands (ev):

   -82.8970 -79.7268 -46.3282 -46.3126 -46.2459 -43.2746 -43.2558 -43.2194
    -5.6172  -5.2119   6.4323   6.9019   7.8024   8.1601   9.1063   9.2880
    10.6254  11.3805  11.7605  12.0032  12.1608  13.1030  13.7403  13.8921
    14.6145  15.3324  19.3092  20.9826  22.8767  24.0467  25.0162  25.8335
    28.0925  29.1099  29.9123  34.3936  35.4140  38.9031  39.9512  40.8486

     occupation numbers 
     1.0000   1.0000   1.0000   1.0000   1.0000   1.0000   1.0000   1.0000
     1.0000   1.0000   1.0000   1.0000   1.0000   1.0000   1.0000   1.0000
     1.0000   1.0000   1.0000   1.0000   1.0000   1.0148   0.4353   0.1339
     0.0000   0.0000   0.0000   0.0000   0.0000   0.0000   0.0000   0.0000
     0.0000   0.0000   0.0000   0.0000   0.0000   0.0000   0.0000   0.0000

          k =-0.6608 0.3304 0.3304 (   908 PWs)   bands (ev):

   -82.8964 -79.7261 -46.3356 -46.3145 -46.2448 -43.2833 -43.2580 -43.2181
    -5.2485  -5.2284   6.0614   6.8017   7.8775   8.2037   8.3623   8.9962
    10.6891  11.3733  11.6735  12.4331  12.5444  12.9170  13.8407  13.9752
    15.1492  15.1690  19.9502  20.4001  22.8743  23.3553  24.5957  25.4556
    27.6873  28.9214  30.4812  33.7521  37.9269  38.2313  39.9127  40.2247

     occupation numbers 
     1.0000   1.0000   1.0000   1.0000   1.0000   1.0000   1.0000   1.0000
     1.0000   1.0000   1.0000   1.0000   1.0000   1.0000   1.0000   1.0000
     1.0000   1.0000   1.0000   1.0000   1.0000   1.0011   0.2125   0.0552
     0.0000   0.0000   0.0000   0.0000   0.0000   0.0000   0.0000   0.0000
     0.0000   0.0000   0.0000   0.0000   0.0000   0.0000   0.0000   0.0000

          k =-0.4128 0.2480 0.2480 (   913 PWs)   bands (ev):

   -82.8970 -79.7268 -46.3283 -46.3128 -46.2459 -43.2747 -43.2559 -43.2193
    -5.6805  -5.1476   6.7815   6.9764   7.5390   8.3412   8.5405   8.9333
    10.8649  11.3647  11.5834  12.5302  12.5882  12.9166  13.7757  13.8242
    15.0136  15.1469  18.2770  21.1610  22.9886  23.8141  24.2907  27.7562
    28.2971  28.7320  31.4047  33.4227  35.2583  37.1468  38.1333  40.8756

     occupation numbers 
     1.0000   1.0000   1.0000   1.0000   1.0000   1.0000   1.0000   1.0000
     1.0000   1.0000   1.0000   1.0000   1.0000   1.0000   1.0000   1.0000
     1.0000   1.0000   1.0000   1.0000   1.0000   1.0011   0.3474   0.2430
     0.0000   0.0000   0.0000   0.0000   0.0000   0.0000   0.0000   0.0000
     0.0000   0.0000   0.0000   0.0000   0.0000   0.0000   0.0000   0.0000

          k = 0.2486 0.2486-0.0818 (   921 PWs)   bands (ev):

   -82.8981 -79.7281 -46.3145 -46.3092 -46.2478 -43.2580 -43.2517 -43.2217
    -6.0847  -5.4101   6.4200   7.9268   8.2988   8.4078   9.2154   9.4385
    10.9575  11.1137  11.4281  12.2389  12.5822  13.1172  13.5618  13.5840
    14.8980  14.9739  16.9139  19.5316  23.5807  25.7764  26.2910  28.0959
    28.7951  30.6402  32.5563  32.8364  33.8040  35.9650  37.7991  38.8279

     occupation numbers 
     1.0000   1.0000   1.0000   1.0000   1.0000   1.0000   1.0000   1.0000
     1.0000   1.0000   1.0000   1.0000   1.0000   1.0000   1.0000   1.0000
     1.0000   1.0000   1.0000   1.0000   1.0000   1.0173   0.8982   0.8495
     0.0000   0.0000   0.0000   0.0000   0.0000   0.0000   0.0000   0.0000
     0.0000   0.0000   0.0000   0.0000   0.0000   0.0000   0.0000   0.0000

          k =-0.9912 0.6608 0.3304 (   910 PWs)   bands (ev):

   -82.8972 -79.7271 -46.3235 -46.3130 -46.2463 -43.2689 -43.2563 -43.2199
    -5.6816  -5.3260   6.6155   6.9629   8.2614   8.3129   8.6616   9.1434
    10.9587  11.2202  11.5836  12.0314  12.4284  13.3849  13.4373  13.8685
    14.7250  15.0677  18.8114  20.4231  23.7415  24.3550  24.7917  26.5660
    28.1769  28.8763  31.4092  32.2557  37.4555  37.6127  38.6241  40.7574

     occupation numbers 
     1.0000   1.0000   1.0000   1.0000   1.0000   1.0000   1.0000   1.0000
     1.0000   1.0000   1.0000   1.0000   1.0000   1.0000   1.0000   1.0000
     1.0000   1.0000   1.0000   1.0000   1.0000   1.0824   1.0645   0.1670
     0.0000   0.0000   0.0000   0.0000   0.0000   0.0000   0.0000   0.0000
     0.0000   0.0000   0.0000   0.0000   0.0000   0.0000   0.0000   0.0000

          k =-0.7432 0.5784 0.2480 (   913 PWs)   bands (ev):

   -82.8964 -79.7261 -46.3321 -46.3180 -46.2450 -43.2791 -43.2623 -43.2182
    -5.2885  -5.1899   6.2918   6.6998   7.7780   8.2486   8.3642   8.7588
    10.9525  11.3936  11.5270  12.3548  12.3811  13.3175  13.7107  13.9172
    15.0148  15.1330  20.4108  20.8378  22.5659  23.4517  24.5856  24.8068
    27.7916  28.4497  31.1563  33.6673  36.5655  38.9011  40.0344  41.2142

     occupation numbers 
     1.0000   1.0000   1.0000   1.0000   1.0000   1.0000   1.0000   1.0000
     1.0000   1.0000   1.0000   1.0000   1.0000   1.0000   1.0000   1.0000
     1.0000   1.0000   1.0000   1.0000   1.0000   1.0762   0.5143   0.1044
     0.0000   0.0000   0.0000   0.0000   0.0000   0.0000   0.0000   0.0000
     0.0000   0.0000   0.0000   0.0000   0.0000   0.0000   0.0000   0.0000

          k =-0.4953 0.4959 0.1655 (   913 PWs)   bands (ev):

   -82.8964 -79.7261 -46.3319 -46.3181 -46.2449 -43.2790 -43.2623 -43.2181
    -5.3416  -5.1397   6.2365   7.1088   7.9619   8.0960   8.2112   8.3565
    11.0986  11.3939  11.5791  12.2845  12.3565  13.2546  13.7096  13.9223
    14.8361  15.5374  19.7010  21.1202  23.2927  23.4215  24.1503  25.3582
    27.3077  28.0566  32.1881  35.0861  36.1062  36.7264  37.4720  41.3331

     occupation numbers 
     1.0000   1.0000   1.0000   1.0000   1.0000   1.0000   1.0000   1.0000
     1.0000   1.0000   1.0000   1.0000   1.0000   1.0000   1.0000   1.0000
     1.0000   1.0000   1.0000   1.0000   1.0000   1.0565   0.5173   0.0990
     0.0000   0.0000   0.0000   0.0000   0.0000   0.0000   0.0000   0.0000
     0.0000   0.0000   0.0000   0.0000   0.0000   0.0000   0.0000   0.0000

          k =-0.5790-0.5790 0.7426 (   910 PWs)   bands (ev):

   -82.8970 -79.7268 -46.3282 -46.3127 -46.2460 -43.2746 -43.2559 -43.2194
    -5.4808  -5.3533   6.2441   6.7110   8.2336   8.3742   9.0351   9.1765
    10.5138  11.3777  11.5026  12.1688  12.4246  13.1596  13.7478  13.8078
    14.9841  15.3855  18.6739  19.9241  23.4900  23.7452  25.3850  27.0514
    27.9005  29.1167  29.6966  34.5759  35.1990  37.1304  40.6413  40.9760

     occupation numbers 
     1.0000   1.0000   1.0000   1.0000   1.0000   1.0000   1.0000   1.0000
     1.0000   1.0000   1.0000   1.0000   1.0000   1.0000   1.0000   1.0000
     1.0000   1.0000   1.0000   1.0000   1.0000   1.0267   0.4158   0.2759
     0.0000   0.0000   0.0000   0.0000   0.0000   0.0000   0.0000   0.0000
     0.0000   0.0000   0.0000   0.0000   0.0000   0.0000   0.0000   0.0000

          k =-0.3311-0.6615 0.6601 (   911 PWs)   bands (ev):

   -82.8964 -79.7261 -46.3321 -46.3179 -46.2451 -43.2790 -43.2622 -43.2183
    -5.2463  -5.2302   6.0555   6.7819   7.9020   8.2009   8.3679   8.9634
    10.8431  11.3421  11.5236  12.3376  12.4889  13.3524  13.6965  13.9132
    15.0882  15.2092  19.9570  20.4013  22.8406  23.3083  24.5962  25.4606
    27.7907  28.9875  30.3961  33.6448  37.8307  38.3254  39.9488  40.3359

     occupation numbers 
     1.0000   1.0000   1.0000   1.0000   1.0000   1.0000   1.0000   1.0000
     1.0000   1.0000   1.0000   1.0000   1.0000   1.0000   1.0000   1.0000
     1.0000   1.0000   1.0000   1.0000   1.0000   1.0825   0.5533   0.1088
     0.0000   0.0000   0.0000   0.0000   0.0000   0.0000   0.0000   0.0000
     0.0000   0.0000   0.0000   0.0000   0.0000   0.0000   0.0000   0.0000

          k =-0.0831-0.7439 0.5777 (   910 PWs)   bands (ev):

   -82.8961 -79.7258 -46.3271 -46.3271 -46.2445 -43.2732 -43.2731 -43.2176
    -5.1505  -5.1505   6.7555   6.8073   7.4766   7.5845   8.2425   8.3808
    11.2880  11.4238  11.4794  12.2387  12.4828  13.6130  13.6802  13.7213
    15.0360  15.1792  21.8800  22.0843  22.1067  22.4914  23.7628  23.8042
    27.8725  28.0204  33.2122  33.3443  35.8996  36.1045  41.2386  41.2883

     occupation numbers 
     1.0000   1.0000   1.0000   1.0000   1.0000   1.0000   1.0000   1.0000
     1.0000   1.0000   1.0000   1.0000   1.0000   1.0000   1.0000   1.0000
     1.0000   1.0000   1.0000   1.0000   1.0000   0.7792   0.5983   0.4856
     0.0000   0.0000   0.0000   0.0000   0.0000   0.0000   0.0000   0.0000
     0.0000   0.0000   0.0000   0.0000   0.0000   0.0000   0.0000   0.0000

          k =-0.4135-0.4135 0.5777 (   913 PWs)   bands (ev):

   -82.8964 -79.7261 -46.3356 -46.3147 -46.2451 -43.2834 -43.2582 -43.2183
    -5.2495  -5.2215   5.6796   6.8016   8.0545   8.1073   8.9294   9.1861
    10.4310  11.3630  11.6191  12.2796  12.3866  13.0793  13.8458  13.9659
    15.4008  15.4093  18.9960  19.8723  23.0282  23.3787  25.1728  26.5381
    27.1892  29.2460  29.6762  34.8616  36.6213  38.0745  39.5149  40.9923

     occupation numbers 
     1.0000   1.0000   1.0000   1.0000   1.0000   1.0000   1.0000   1.0000
     1.0000   1.0000   1.0000   1.0000   1.0000   1.0000   1.0000   1.0000
     1.0000   1.0000   1.0000   1.0000   1.0000   1.0112   0.2036   0.0616
     0.0000   0.0000   0.0000   0.0000   0.0000   0.0000   0.0000   0.0000
     0.0000   0.0000   0.0000   0.0000   0.0000   0.0000   0.0000   0.0000

          k = 0.1662 0.1662 0.1662 (   939 PWs)   bands (ev):

   -82.8987 -79.7288 -46.3076 -46.3076 -46.2491 -43.2497 -43.2497 -43.2232
    -6.2275  -5.5922   6.4818   8.3117   8.3117   8.7093   9.6141   9.6141
    10.9211  10.9211  11.2854  12.6020  12.6020  13.2290  13.2290  13.3314
    15.1078  15.1078  16.1967  18.1433  23.9481  26.9872  28.0474  28.0474
    30.5567  30.5567  32.7170  33.4150  34.3595  34.3595  35.9797  35.9797

     occupation numbers 
     1.0000   1.0000   1.0000   1.0000   1.0000   1.0000   1.0000   1.0000
     1.0000   1.0000   1.0000   1.0000   1.0000   1.0000   1.0000   1.0000
     1.0000   1.0000   1.0000   1.0000   1.0000   1.0477   1.0477   1.0793
     0.0000   0.0000   0.0000   0.0000   0.0000   0.0000   0.0000   0.0000
     0.0000   0.0000   0.0000   0.0000   0.0000   0.0000   0.0000   0.0000

          k =-1.0736 0.5784 0.5784 (   922 PWs)   bands (ev):

   -82.8981 -79.7281 -46.3145 -46.3091 -46.2479 -43.2581 -43.2515 -43.2219
    -5.9453  -5.5673   6.7215   7.5260   8.2835   8.5461   9.3442   9.4823
    10.7769  11.2172  11.6652  11.9748  12.1379  13.2860  13.4462  13.6088
    14.4130  15.3352  17.9240  18.9529  24.3890  25.7433  26.4300  27.6029
    28.6834  29.4517  30.4591  33.6421  36.0532  36.8771  37.2664  38.4566

     occupation numbers 
     1.0000   1.0000   1.0000   1.0000   1.0000   1.0000   1.0000   1.0000
     1.0000   1.0000   1.0000   1.0000   1.0000   1.0000   1.0000   1.0000
     1.0000   1.0000   1.0000   1.0000   1.0000   1.0671   1.0589   0.7897
     0.0000   0.0000   0.0000   0.0000   0.0000   0.0000   0.0000   0.0000
     0.0000   0.0000   0.0000   0.0000   0.0000   0.0000   0.0000   0.0000

          k =-0.8257 0.4959 0.4959 (   898 PWs)   bands (ev):

   -82.8969 -79.7268 -46.3280 -46.3124 -46.2458 -43.2745 -43.2557 -43.2193
    -5.4965  -5.3362   6.2214   6.7767   8.1588   8.1734   9.3324   9.3807
    10.4030  11.3909  11.5854  12.0235  12.1592  13.1935  13.7398  13.8515
    14.6934  15.4586  19.6261  19.7199  23.2676  24.2689  25.4009  25.9061
    27.9313  29.2106  29.2726  34.9803  36.1477  36.7417  40.8353  41.4907

     occupation numbers 
     1.0000   1.0000   1.0000   1.0000   1.0000   1.0000   1.0000   1.0000
     1.0000   1.0000   1.0000   1.0000   1.0000   1.0000   1.0000   1.0000
     1.0000   1.0000   1.0000   1.0000   1.0000   1.0362   0.4366   0.1939
     0.0000   0.0000   0.0000   0.0000   0.0000   0.0000   0.0000   0.0000
     0.0000   0.0000   0.0000   0.0000   0.0000   0.0000   0.0000   0.0000

          k =-0.6615-0.6615 0.9905 (   920 PWs)   bands (ev):

   -82.8981 -79.7281 -46.3143 -46.3092 -46.2479 -43.2579 -43.2517 -43.2218
    -5.8452  -5.6744   6.9367   7.3652   8.4604   8.6826   9.0450   9.1725
    10.8659  11.1418  11.6267  12.0298  12.4629  13.1914  13.5143  13.5744
    14.6395  15.1173  17.9410  18.8171  24.8427  25.4959  26.5032  26.8687
    28.7204  29.8606  31.4517  32.7299  35.1609  36.6746  37.5562  38.5360

     occupation numbers 
     1.0000   1.0000   1.0000   1.0000   1.0000   1.0000   1.0000   1.0000
     1.0000   1.0000   1.0000   1.0000   1.0000   1.0000   1.0000   1.0000
     1.0000   1.0000   1.0000   1.0000   1.0000   1.0355   0.9840   0.8711
     0.0000   0.0000   0.0000   0.0000   0.0000   0.0000   0.0000   0.0000
     0.0000   0.0000   0.0000   0.0000   0.0000   0.0000   0.0000   0.0000

          k =-0.4135-0.7439 0.9081 (   912 PWs)   bands (ev):

   -82.8972 -79.7271 -46.3234 -46.3132 -46.2464 -43.2689 -43.2565 -43.2200
    -5.5083  -5.5046   6.6413   6.8046   8.3644   8.5147   8.6522   9.0752
    10.9641  11.1137  11.6469  11.9216  12.4467  13.4108  13.4318  13.8722
    14.7173  15.0404  19.5092  19.6262  24.1626  24.4419  25.3038  25.3911
    28.5650  28.8141  31.4261  31.4373  38.5958  38.6102  39.2520  39.4219

     occupation numbers 
     1.0000   1.0000   1.0000   1.0000   1.0000   1.0000   1.0000   1.0000
     1.0000   1.0000   1.0000   1.0000   1.0000   1.0000   1.0000   1.0000
     1.0000   1.0000   1.0000   1.0000   1.0000   1.0768   1.0677   0.1613
     0.0000   0.0000   0.0000   0.0000   0.0000   0.0000   0.0000   0.0000
     0.0000   0.0000   0.0000   0.0000   0.0000   0.0000   0.0000   0.0000

          k =-0.2493-0.2493-0.2493 (   954 PWs)   bands (ev):

   -82.8988 -79.7288 -46.3079 -46.3079 -46.2495 -43.2499 -43.2499 -43.2236
    -5.9317  -5.9139   7.3906   7.6158   8.4792   8.4792   9.3149   9.3149
    10.9361  10.9361  11.3002  12.8435  12.8435  13.2017  13.2017  13.2602
    14.9755  14.9755  17.2050  17.4306  25.0896  25.3748  29.1419  29.1419
    29.3458  29.3458  33.0107  33.0572  34.8048  34.8048  35.0329  35.0329

     occupation numbers 
     1.0000   1.0000   1.0000   1.0000   1.0000   1.0000   1.0000   1.0000
     1.0000   1.0000   1.0000   1.0000   1.0000   1.0000   1.0000   1.0000
     1.0000   1.0000   1.0000   1.0003   1.0003   1.0387   1.0387   1.0584
     0.0000   0.0000   0.0000   0.0000   0.0000   0.0000   0.0000   0.0000
     0.0000   0.0000   0.0000   0.0000   0.0000   0.0000   0.0000   0.0000

     the Fermi energy is    13.7538 ev
     (compare with:    13.7856 eV, computed in scf)

     Writing output data file ./tmp/CoO.save/
 
     init_run     :      0.91s CPU      0.97s WALL (       1 calls)
     electrons    :     51.11s CPU     51.32s WALL (       1 calls)

     Called by init_run:
     wfcinit      :      0.00s CPU      0.00s WALL (       1 calls)
     wfcinit:atom :      0.02s CPU      0.02s WALL (      64 calls)
     wfcinit:wfcr :      2.89s CPU      2.92s WALL (      64 calls)
     potinit      :      0.25s CPU      0.27s WALL (       1 calls)
     hinit0       :      0.58s CPU      0.59s WALL (       1 calls)

     Called by electrons:
     c_bands      :     51.11s CPU     51.31s WALL (       1 calls)
     v_of_rho     :      0.12s CPU      0.14s WALL (       1 calls)
     v_h          :      0.00s CPU      0.00s WALL (       1 calls)
     v_xc         :      0.12s CPU      0.14s WALL (       1 calls)
     newd         :      0.07s CPU      0.11s WALL (       1 calls)
     PAW_pot      :      0.12s CPU      0.12s WALL (       1 calls)

     Called by c_bands:
     init_us_2    :      0.03s CPU      0.03s WALL (      64 calls)
     cegterg      :     47.99s CPU     48.17s WALL (     137 calls)

     Called by sum_band:

     Called by *egterg:
     cdiaghg      :      3.60s CPU      3.63s WALL (    2271 calls)
     cegterg:over :      1.05s CPU      1.06s WALL (    2207 calls)
     cegterg:upda :      0.58s CPU      0.58s WALL (    2207 calls)
     cegterg:last :      1.33s CPU      1.33s WALL (     923 calls)
     h_psi        :     43.34s CPU     43.49s WALL (    2408 calls)
     s_psi        :      0.41s CPU      0.41s WALL (    2408 calls)
     g_psi        :      0.20s CPU      0.20s WALL (    2207 calls)

     Called by h_psi:
     h_psi:calbec :      0.43s CPU      0.44s WALL (    2408 calls)
     vloc_psi     :     42.43s CPU     42.58s WALL (    2408 calls)
     add_vuspsi   :      0.41s CPU      0.41s WALL (    2408 calls)

     General routines
     calbec       :      0.43s CPU      0.43s WALL (    2408 calls)
     fft          :      0.03s CPU      0.03s WALL (      23 calls)
     ffts         :      0.00s CPU      0.00s WALL (       2 calls)
     fftw         :     37.87s CPU     38.01s WALL (   83524 calls)
     interpolate  :      0.00s CPU      0.00s WALL (       2 calls)
     davcio       :      0.02s CPU      0.03s WALL (     128 calls)
 
     Parallel routines

     PAW routines
     PAW_pot      :      0.12s CPU      0.12s WALL (       1 calls)
 
     PWSCF        :     52.24s CPU     52.55s WALL

 
   This run was terminated on:  14:55: 1   7Jun2021            

=------------------------------------------------------------------------------=
   JOB DONE.
=------------------------------------------------------------------------------=
