
     Program PWSCF v.6.7MaX starts on  7Jun2021 at 14:53: 7 

     This program is part of the open-source Quantum ESPRESSO suite
     for quantum simulation of materials; please cite
         "P. Giannozzi et al., J. Phys.:Condens. Matter 21 395502 (2009);
         "P. Giannozzi et al., J. Phys.:Condens. Matter 29 465901 (2017);
          URL http://www.quantum-espresso.org", 
     in publications or presentations arising from this work. More details at
     http://www.quantum-espresso.org/quote

     Parallel version (MPI), running on     1 processors

     MPI processes distributed on     1 nodes
     Waiting for input...
     Reading input from standard input

     Current dimensions of program PWSCF are:
     Max number of different atomic species (ntypx) = 10
     Max number of k-points (npk) =  40000
     Max angular momentum in pseudopotentials (lmaxx) =  3
     Message from routine volume:
     axis vectors are left-handed
     file O.pbesol-n-kjpaw_psl.0.1.UPF: wavefunction(s)  2P renormalized

     Subspace diagonalization in iterative solution of the eigenvalue problem:
     a serial algorithm will be used

     Message from routine setup:
     using ibrav=0 with symmetry is DISCOURAGED, use correct ibrav instead
 
     G-vector sticks info
     --------------------
     sticks:   dense  smooth     PW     G-vecs:    dense   smooth      PW
     Sum        1201     597    199                20701     7367    1387
 


     bravais-lattice index     =            0
     lattice parameter (alat)  =       8.0000  a.u.
     unit-cell volume          =     261.2912 (a.u.)^3
     number of atoms/cell      =            4
     number of atomic types    =            3
     number of electrons       =        46.00
     number of Kohn-Sham states=           28
     kinetic-energy cutoff     =      35.0000  Ry
     charge density cutoff     =     280.0000  Ry
     scf convergence threshold =      1.0E-10
     mixing beta               =       0.7000
     number of iterations used =            8  plain     mixing
     Exchange-correlation= SLA  PW   PSX  PSC
                           (   1   4  10   8   0   0   0)

     celldm(1)=   8.000000  celldm(2)=   0.000000  celldm(3)=   0.000000
     celldm(4)=   0.000000  celldm(5)=   0.000000  celldm(6)=   0.000000

     crystal axes: (cart. coord. in units of alat)
               a(1) = (   0.500381   0.500381   1.004818 )  
               a(2) = (   0.500381   1.004818   0.500381 )  
               a(3) = (   1.004818   0.500381   0.500381 )  

     reciprocal axes: (cart. coord. in units 2 pi/alat)
               b(1) = ( -0.494599 -0.494599  1.487807 )  
               b(2) = ( -0.494599  1.487807 -0.494599 )  
               b(3) = (  1.487807 -0.494599 -0.494599 )  


     PseudoPot. # 1 for Co read from file:
     ../files/pseudo/co_pbesol_v1.2.uspp.F.UPF
     MD5 check sum: 3b4cd4e7cc7df4da9fdede0fd33e2193
     Pseudo is Ultrasoft + core correction, Zval = 17.0
     Generated by new atomic code, or converted to UPF format
     Using radial grid of  863 points,  6 beta functions with: 
                l(1) =   0
                l(2) =   0
                l(3) =   1
                l(4) =   1
                l(5) =   2
                l(6) =   2
     Q(r) pseudized with  8 coefficients,  rinner =    1.200   1.200   1.200
                                                       1.200   1.200

     PseudoPot. # 2 for Co read from file:
     ../files/pseudo/co_pbesol_v1.2.uspp.F.UPF
     MD5 check sum: 3b4cd4e7cc7df4da9fdede0fd33e2193
     Pseudo is Ultrasoft + core correction, Zval = 17.0
     Generated by new atomic code, or converted to UPF format
     Using radial grid of  863 points,  6 beta functions with: 
                l(1) =   0
                l(2) =   0
                l(3) =   1
                l(4) =   1
                l(5) =   2
                l(6) =   2
     Q(r) pseudized with  8 coefficients,  rinner =    1.200   1.200   1.200
                                                       1.200   1.200

     PseudoPot. # 3 for O  read from file:
     ../files/pseudo/O.pbesol-n-kjpaw_psl.0.1.UPF
     MD5 check sum: 126339daddaa87477ab44acfa0b5aa00
     Pseudo is Projector augmented-wave + core cor, Zval =  6.0
     Generated using "atomic" code by A. Dal Corso  v.6.0 svn rev. 13079
     Shape of augmentation charge: BESSEL
     Using radial grid of 1095 points,  4 beta functions with: 
                l(1) =   0
                l(2) =   0
                l(3) =   1
                l(4) =   1
     Q(r) pseudized with 0 coefficients 


     atomic species   valence    mass     pseudopotential
        Co1           17.00    58.93319     Co( 1.00)
        Co2           17.00    58.93319     Co( 1.00)
        O              6.00    15.99900     O ( 1.00)

     Starting magnetic structure 
     atomic species   magnetization
        Co1          0.500
        Co2         -0.500
        O            0.000

     12 Sym. Ops., with inversion, found


                                    s                        frac. trans.

      isym =  1     identity                                     

 cryst.   s( 1) = (     1          0          0      )
                  (     0          1          0      )
                  (     0          0          1      )

 cart.    s( 1) = (  1.0000000 -0.0000000 -0.0000000 )
                  ( -0.0000000  1.0000000 -0.0000000 )
                  ( -0.0000000 -0.0000000  1.0000000 )


      isym =  2     180 deg rotation - cart. axis [1,-1,0]       

 cryst.   s( 2) = (    -1          0          0      )
                  (     0          0         -1      )
                  (     0         -1          0      )

 cart.    s( 2) = (  0.0000000 -1.0000000  0.0000000 )
                  ( -1.0000000  0.0000000  0.0000000 )
                  (  0.0000000  0.0000000 -1.0000000 )


      isym =  3     180 deg rotation - cart. axis [-1,0,1]       

 cryst.   s( 3) = (     0          0         -1      )
                  (     0         -1          0      )
                  (    -1          0          0      )

 cart.    s( 3) = (  0.0000000  0.0000000 -1.0000000 )
                  (  0.0000000 -1.0000000  0.0000000 )
                  ( -1.0000000  0.0000000  0.0000000 )


      isym =  4     180 deg rotation - cart. axis [0,1,-1]       

 cryst.   s( 4) = (     0         -1          0      )
                  (    -1          0          0      )
                  (     0          0         -1      )

 cart.    s( 4) = ( -1.0000000  0.0000000  0.0000000 )
                  (  0.0000000  0.0000000 -1.0000000 )
                  (  0.0000000 -1.0000000  0.0000000 )


      isym =  5     120 deg rotation - cart. axis [-1,-1,-1]     

 cryst.   s( 5) = (     0          1          0      )
                  (     0          0          1      )
                  (     1          0          0      )

 cart.    s( 5) = ( -0.0000000  1.0000000 -0.0000000 )
                  ( -0.0000000 -0.0000000  1.0000000 )
                  (  1.0000000 -0.0000000 -0.0000000 )


      isym =  6     120 deg rotation - cart. axis [1,1,1]        

 cryst.   s( 6) = (     0          0          1      )
                  (     1          0          0      )
                  (     0          1          0      )

 cart.    s( 6) = ( -0.0000000 -0.0000000  1.0000000 )
                  (  1.0000000 -0.0000000 -0.0000000 )
                  ( -0.0000000  1.0000000 -0.0000000 )


      isym =  7     inversion                                    

 cryst.   s( 7) = (    -1          0          0      )
                  (     0         -1          0      )
                  (     0          0         -1      )

 cart.    s( 7) = ( -1.0000000  0.0000000  0.0000000 )
                  (  0.0000000 -1.0000000  0.0000000 )
                  (  0.0000000  0.0000000 -1.0000000 )


      isym =  8     inv. 180 deg rotation - cart. axis [1,-1,0]  

 cryst.   s( 8) = (     1          0          0      )
                  (     0          0          1      )
                  (     0          1          0      )

 cart.    s( 8) = ( -0.0000000  1.0000000 -0.0000000 )
                  (  1.0000000 -0.0000000 -0.0000000 )
                  ( -0.0000000 -0.0000000  1.0000000 )


      isym =  9     inv. 180 deg rotation - cart. axis [-1,0,1]  

 cryst.   s( 9) = (     0          0          1      )
                  (     0          1          0      )
                  (     1          0          0      )

 cart.    s( 9) = ( -0.0000000 -0.0000000  1.0000000 )
                  ( -0.0000000  1.0000000 -0.0000000 )
                  (  1.0000000 -0.0000000 -0.0000000 )


      isym = 10     inv. 180 deg rotation - cart. axis [0,1,-1]  

 cryst.   s(10) = (     0          1          0      )
                  (     1          0          0      )
                  (     0          0          1      )

 cart.    s(10) = (  1.0000000 -0.0000000 -0.0000000 )
                  ( -0.0000000 -0.0000000  1.0000000 )
                  ( -0.0000000  1.0000000 -0.0000000 )


      isym = 11     inv. 120 deg rotation - cart. axis [-1,-1,-1]

 cryst.   s(11) = (     0         -1          0      )
                  (     0          0         -1      )
                  (    -1          0          0      )

 cart.    s(11) = (  0.0000000 -1.0000000  0.0000000 )
                  (  0.0000000  0.0000000 -1.0000000 )
                  ( -1.0000000  0.0000000  0.0000000 )


      isym = 12     inv. 120 deg rotation - cart. axis [1,1,1]   

 cryst.   s(12) = (     0          0         -1      )
                  (    -1          0          0      )
                  (     0         -1          0      )

 cart.    s(12) = (  0.0000000  0.0000000 -1.0000000 )
                  ( -1.0000000  0.0000000  0.0000000 )
                  (  0.0000000 -1.0000000  0.0000000 )


   Cartesian axes

     site n.     atom                  positions (alat units)
         1           Co1 tau(   1) = (   0.0000000   0.0000000   0.0000000  )
         2           Co2 tau(   2) = (   1.0027898   1.0027898   1.0027898  )
         3           O   tau(   3) = (   0.5013949   0.5013949   0.5013949  )
         4           O   tau(   4) = (   1.5041847   1.5041847   1.5041847  )

   Crystallographic axes

     site n.     atom                  positions (cryst. coord.)
         1           Co1 tau(   1) = (  0.0000000  0.0000000  0.0000000  )
         2           Co2 tau(   2) = (  0.5000000  0.5000000  0.5000000  )
         3           O   tau(   3) = (  0.2500000  0.2500000  0.2500000  )
         4           O   tau(   4) = (  0.7500000  0.7500000  0.7500000  )

     number of k points=     6  Marzari-Vanderbilt smearing, width (Ry)=  0.0200
                       cart. coord. in units 2pi/alat
        k(    1) = (   0.0000000   0.0000000   0.0000000), wk =   0.0370370
        k(    2) = (   0.4959356  -0.1648663  -0.1648663), wk =   0.2222222
        k(    3) = (   0.3310693   0.3310693  -0.3297326), wk =   0.2222222
        k(    4) = (  -0.6608019   0.6608019   0.0000000), wk =   0.2222222
        k(    5) = (   0.1662030   0.1662030   0.1662030), wk =   0.0740741
        k(    6) = (  -0.8256682   0.4959356   0.4959356), wk =   0.2222222

                       cryst. coord.
        k(    1) = (   0.0000000   0.0000000   0.0000000), wk =   0.0370370
        k(    2) = (  -0.0000000  -0.0000000   0.3333333), wk =   0.2222222
        k(    3) = (  -0.0000000   0.3333333   0.3333333), wk =   0.2222222
        k(    4) = (   0.0000000   0.3333333  -0.3333333), wk =   0.2222222
        k(    5) = (   0.3333333   0.3333333   0.3333333), wk =   0.0740741
        k(    6) = (   0.3333333   0.3333333  -0.3333333), wk =   0.2222222

     Dense  grid:    20701 G-vectors     FFT dimensions: (  54,  54,  54)

     Smooth grid:     7367 G-vectors     FFT dimensions: (  40,  40,  40)

     Dynamical RAM for                 wfc:       0.39 MB

     Dynamical RAM for     wfc (w. buffer):       5.08 MB

     Dynamical RAM for           str. fact:       0.95 MB

     Dynamical RAM for           local pot:       0.00 MB

     Dynamical RAM for          nlocal pot:       0.73 MB

     Dynamical RAM for                qrad:       4.03 MB

     Dynamical RAM for          rho,v,vnew:       9.10 MB

     Dynamical RAM for               rhoin:       3.03 MB

     Dynamical RAM for            rho*nmix:      10.11 MB

     Dynamical RAM for           G-vectors:       1.24 MB

     Dynamical RAM for          h,s,v(r/c):       0.14 MB

     Dynamical RAM for          <psi|beta>:       0.02 MB

     Dynamical RAM for                 psi:       0.78 MB

     Dynamical RAM for                hpsi:       0.78 MB

     Dynamical RAM for                spsi:       0.78 MB

     Dynamical RAM for      wfcinit/wfcrot:       0.98 MB

     Dynamical RAM for           addusdens:      59.70 MB

     Estimated static dynamical RAM per process >      42.74 MB

     Estimated max dynamical RAM per process >     102.44 MB

     Check: negative core charge=   -0.000039
     Generating pointlists ...
     new r_m :   0.2077 (alat units)  1.6613 (a.u.) for type    1
     new r_m :   0.2077 (alat units)  1.6613 (a.u.) for type    2
     new r_m :   0.2077 (alat units)  1.6613 (a.u.) for type    3

     Initial potential from superposition of free atoms

     starting charge   43.99998, renormalised to   46.00000
     Starting wfcs are   34 randomized atomic wfcs
     Checking if some PAW data can be deallocated... 

     total cpu time spent up to now is        1.6 secs

     Self-consistent Calculation

     iteration #  1     ecut=    35.00 Ry     beta= 0.70
     Davidson diagonalization with overlap
     ethr =  1.00E-02,  avg # of iterations =  2.8

     total cpu time spent up to now is        3.5 secs

     total energy              =    -669.89697845 Ry
     estimated scf accuracy    <      14.55648112 Ry

     total magnetization       =    -0.00 Bohr mag/cell
     absolute magnetization    =     8.80 Bohr mag/cell

     iteration #  2     ecut=    35.00 Ry     beta= 0.70
     Davidson diagonalization with overlap
     ethr =  1.00E-02,  avg # of iterations =  3.0

     total cpu time spent up to now is        5.6 secs

     total energy              =    -673.06109780 Ry
     estimated scf accuracy    <      66.02106455 Ry

     total magnetization       =    -0.00 Bohr mag/cell
     absolute magnetization    =     0.60 Bohr mag/cell

     iteration #  3     ecut=    35.00 Ry     beta= 0.70
     Davidson diagonalization with overlap
     ethr =  1.00E-02,  avg # of iterations =  3.0

     total cpu time spent up to now is        7.5 secs

     total energy              =    -678.60774574 Ry
     estimated scf accuracy    <       0.55831200 Ry

     total magnetization       =     0.01 Bohr mag/cell
     absolute magnetization    =     5.21 Bohr mag/cell

     iteration #  4     ecut=    35.00 Ry     beta= 0.70
     Davidson diagonalization with overlap
     ethr =  1.21E-03,  avg # of iterations =  2.0

     total cpu time spent up to now is        9.2 secs

     total energy              =    -678.59127113 Ry
     estimated scf accuracy    <       0.30197013 Ry

     total magnetization       =    -0.69 Bohr mag/cell
     absolute magnetization    =     5.10 Bohr mag/cell

     iteration #  5     ecut=    35.00 Ry     beta= 0.70
     Davidson diagonalization with overlap
     ethr =  6.56E-04,  avg # of iterations =  2.8

     total cpu time spent up to now is       11.0 secs

     total energy              =    -678.36214555 Ry
     estimated scf accuracy    <      12.91382587 Ry

     total magnetization       =     3.91 Bohr mag/cell
     absolute magnetization    =     4.43 Bohr mag/cell

     iteration #  6     ecut=    35.00 Ry     beta= 0.70
     Davidson diagonalization with overlap
     ethr =  6.56E-04,  avg # of iterations =  2.2

     total cpu time spent up to now is       12.6 secs

     total energy              =    -678.70421585 Ry
     estimated scf accuracy    <       0.04575486 Ry

     total magnetization       =     0.17 Bohr mag/cell
     absolute magnetization    =     5.17 Bohr mag/cell

     iteration #  7     ecut=    35.00 Ry     beta= 0.70
     Davidson diagonalization with overlap
     ethr =  9.95E-05,  avg # of iterations =  2.4

     total cpu time spent up to now is       14.2 secs

     total energy              =    -678.70830788 Ry
     estimated scf accuracy    <       0.00056262 Ry

     total magnetization       =    -0.05 Bohr mag/cell
     absolute magnetization    =     5.07 Bohr mag/cell

     iteration #  8     ecut=    35.00 Ry     beta= 0.70
     Davidson diagonalization with overlap
     ethr =  1.22E-06,  avg # of iterations =  4.6

     total cpu time spent up to now is       15.9 secs

     total energy              =    -678.70842108 Ry
     estimated scf accuracy    <       0.01550010 Ry

     total magnetization       =     0.19 Bohr mag/cell
     absolute magnetization    =     5.06 Bohr mag/cell

     iteration #  9     ecut=    35.00 Ry     beta= 0.70
     Davidson diagonalization with overlap
     ethr =  1.22E-06,  avg # of iterations =  1.0

     total cpu time spent up to now is       17.4 secs

     total energy              =    -678.70839686 Ry
     estimated scf accuracy    <       0.00295359 Ry

     total magnetization       =     0.08 Bohr mag/cell
     absolute magnetization    =     5.07 Bohr mag/cell

     iteration # 10     ecut=    35.00 Ry     beta= 0.70
     Davidson diagonalization with overlap
     ethr =  1.22E-06,  avg # of iterations =  1.0

     total cpu time spent up to now is       19.0 secs

     total energy              =    -678.70845550 Ry
     estimated scf accuracy    <       0.00023960 Ry

     total magnetization       =    -0.02 Bohr mag/cell
     absolute magnetization    =     5.07 Bohr mag/cell

     iteration # 11     ecut=    35.00 Ry     beta= 0.70
     Davidson diagonalization with overlap
     ethr =  5.21E-07,  avg # of iterations =  1.0

     total cpu time spent up to now is       20.5 secs

     total energy              =    -678.70845406 Ry
     estimated scf accuracy    <       0.00017237 Ry

     total magnetization       =    -0.02 Bohr mag/cell
     absolute magnetization    =     5.06 Bohr mag/cell

     iteration # 12     ecut=    35.00 Ry     beta= 0.70
     Davidson diagonalization with overlap
     ethr =  3.75E-07,  avg # of iterations =  1.0

     total cpu time spent up to now is       22.0 secs

     total energy              =    -678.70845508 Ry
     estimated scf accuracy    <       0.00001363 Ry

     total magnetization       =    -0.01 Bohr mag/cell
     absolute magnetization    =     5.06 Bohr mag/cell

     iteration # 13     ecut=    35.00 Ry     beta= 0.70
     Davidson diagonalization with overlap
     ethr =  2.96E-08,  avg # of iterations =  1.0

     total cpu time spent up to now is       23.5 secs

     total energy              =    -678.70845536 Ry
     estimated scf accuracy    <       0.00000257 Ry

     total magnetization       =     0.00 Bohr mag/cell
     absolute magnetization    =     5.06 Bohr mag/cell

     iteration # 14     ecut=    35.00 Ry     beta= 0.70
     Davidson diagonalization with overlap
     ethr =  5.59E-09,  avg # of iterations =  1.0

     total cpu time spent up to now is       25.0 secs

     total energy              =    -678.70845540 Ry
     estimated scf accuracy    <       0.00000010 Ry

     total magnetization       =    -0.00 Bohr mag/cell
     absolute magnetization    =     5.06 Bohr mag/cell

     iteration # 15     ecut=    35.00 Ry     beta= 0.70
     Davidson diagonalization with overlap
     ethr =  2.09E-10,  avg # of iterations =  1.3

     total cpu time spent up to now is       26.5 secs

     total energy              =    -678.70845541 Ry
     estimated scf accuracy    <       0.00000002 Ry

     total magnetization       =    -0.00 Bohr mag/cell
     absolute magnetization    =     5.06 Bohr mag/cell

     iteration # 16     ecut=    35.00 Ry     beta= 0.70
     Davidson diagonalization with overlap
     ethr =  3.96E-11,  avg # of iterations =  1.2

     total cpu time spent up to now is       28.0 secs

     total energy              =    -678.70845541 Ry
     estimated scf accuracy    <          3.7E-09 Ry

     total magnetization       =     0.00 Bohr mag/cell
     absolute magnetization    =     5.06 Bohr mag/cell

     iteration # 17     ecut=    35.00 Ry     beta= 0.70
     Davidson diagonalization with overlap
     ethr =  8.00E-12,  avg # of iterations =  1.0
 
     Magnetic moment per site:
     atom:    1    charge:   14.6301    magn:    2.3547    constr:    0.0000
     atom:    2    charge:   14.6301    magn:   -2.3547    constr:    0.0000
     atom:    3    charge:    5.7211    magn:   -0.0000    constr:    0.0000
     atom:    4    charge:    5.7211    magn:   -0.0000    constr:    0.0000

     total cpu time spent up to now is       29.5 secs

     End of self-consistent calculation

 ------ SPIN UP ------------


          k = 0.0000 0.0000 0.0000 (   923 PWs)   bands (ev):

   -82.8987 -79.7287 -46.3074 -46.3074 -46.2488 -43.2494 -43.2494 -43.2227
    -6.5111  -5.2292   5.5447   8.0242   8.0242  10.5227  10.5227  10.5496
    10.8695  10.8695  11.0664  11.7280  11.7280  13.3017  13.3017  13.5441
    14.6126  15.4221  15.4221  18.5132

     occupation numbers 
     1.0000   1.0000   1.0000   1.0000   1.0000   1.0000   1.0000   1.0000
     1.0000   1.0000   1.0000   1.0000   1.0000   1.0000   1.0000   1.0000
     1.0000   1.0000   1.0000   1.0000   1.0000   1.0617   1.0617   0.9868
     0.0000   0.0000   0.0000   0.0000

          k = 0.4959-0.1649-0.1649 (   913 PWs)   bands (ev):

   -82.8970 -79.7267 -46.3284 -46.3129 -46.2460 -43.2747 -43.2559 -43.2193
    -5.6843  -5.1426   6.8338   6.9705   7.4108   8.2360   8.7003   9.1040
    10.8228  11.3696  11.6834  12.2762  12.4408  12.9591  13.7587  13.8649
    14.8305  15.1081  18.8112  22.0108

     occupation numbers 
     1.0000   1.0000   1.0000   1.0000   1.0000   1.0000   1.0000   1.0000
     1.0000   1.0000   1.0000   1.0000   1.0000   1.0000   1.0000   1.0000
     1.0000   1.0000   1.0000   1.0000   1.0000   1.0013   0.4702   0.2262
     0.0000   0.0000   0.0000   0.0000

          k = 0.3311 0.3311-0.3297 (   921 PWs)   bands (ev):

   -82.8971 -79.7267 -46.3284 -46.3132 -46.2462 -43.2746 -43.2561 -43.2194
    -5.6066  -5.2252   6.4701   6.7816   8.1482   8.3303   8.6217   8.9693
    10.7384  11.3636  11.5183  12.4458  12.5762  13.0290  13.7616  13.8022
    15.1667  15.2318  18.1339  20.4072

     occupation numbers 
     1.0000   1.0000   1.0000   1.0000   1.0000   1.0000   1.0000   1.0000
     1.0000   1.0000   1.0000   1.0000   1.0000   1.0000   1.0000   1.0000
     1.0000   1.0000   1.0000   1.0000   1.0000   1.0037   0.4628   0.3597
     0.0000   0.0000   0.0000   0.0000

          k =-0.6608 0.6608 0.0000 (   908 PWs)   bands (ev):

   -82.8962 -79.7257 -46.3272 -46.3271 -46.2444 -43.2731 -43.2731 -43.2174
    -5.1506  -5.1504   6.7193   6.8646   7.3837   7.6745   8.2075   8.4006
    11.2867  11.4318  11.4722  12.2438  12.4791  13.6123  13.6794  13.7243
    15.0246  15.1913  21.9081  22.1932

     occupation numbers 
     1.0000   1.0000   1.0000   1.0000   1.0000   1.0000   1.0000   1.0000
     1.0000   1.0000   1.0000   1.0000   1.0000   1.0000   1.0000   1.0000
     1.0000   1.0000   1.0000   1.0000   1.0000   0.8573   0.6878   0.5639
     0.0000   0.0000   0.0000   0.0000

          k = 0.1662 0.1662 0.1662 (   939 PWs)   bands (ev):

   -82.8988 -79.7287 -46.3077 -46.3077 -46.2492 -43.2496 -43.2496 -43.2232
    -6.2275  -5.5922   6.4818   8.3116   8.3116   8.7093   9.6141   9.6141
    10.9210  10.9210  11.2854  12.6019  12.6019  13.2290  13.2290  13.3314
    15.1079  15.1079  16.1967  18.1433

     occupation numbers 
     1.0000   1.0000   1.0000   1.0000   1.0000   1.0000   1.0000   1.0000
     1.0000   1.0000   1.0000   1.0000   1.0000   1.0000   1.0000   1.0000
     1.0000   1.0000   1.0000   1.0000   1.0000   1.0373   1.0373   1.0713
     0.0000   0.0000   0.0000   0.0000

          k =-0.8257 0.4959 0.4959 (   898 PWs)   bands (ev):

   -82.8970 -79.7267 -46.3281 -46.3125 -46.2458 -43.2744 -43.2556 -43.2192
    -5.4965  -5.3362   6.2214   6.7767   8.1587   8.1734   9.3324   9.3807
    10.4029  11.3909  11.5854  12.0235  12.1591  13.1935  13.7399  13.8516
    14.6934  15.4587  19.6261  19.7199

     occupation numbers 
     1.0000   1.0000   1.0000   1.0000   1.0000   1.0000   1.0000   1.0000
     1.0000   1.0000   1.0000   1.0000   1.0000   1.0000   1.0000   1.0000
     1.0000   1.0000   1.0000   1.0000   1.0000   1.0272   0.5213   0.2515
     0.0000   0.0000   0.0000   0.0000

 ------ SPIN DOWN ----------


          k = 0.0000 0.0000 0.0000 (   923 PWs)   bands (ev):

   -82.8988 -79.7287 -46.3074 -46.3074 -46.2489 -43.2494 -43.2494 -43.2227
    -6.5111  -5.2292   5.5447   8.0242   8.0242  10.5227  10.5227  10.5496
    10.8695  10.8695  11.0663  11.7280  11.7280  13.3017  13.3017  13.5441
    14.6126  15.4221  15.4221  18.5132

     occupation numbers 
     1.0000   1.0000   1.0000   1.0000   1.0000   1.0000   1.0000   1.0000
     1.0000   1.0000   1.0000   1.0000   1.0000   1.0000   1.0000   1.0000
     1.0000   1.0000   1.0000   1.0000   1.0000   1.0617   1.0617   0.9868
     0.0000   0.0000   0.0000   0.0000

          k = 0.4959-0.1649-0.1649 (   913 PWs)   bands (ev):

   -82.8971 -79.7267 -46.3284 -46.3129 -46.2460 -43.2747 -43.2559 -43.2193
    -5.6843  -5.1426   6.8338   6.9705   7.4108   8.2360   8.7003   9.1040
    10.8228  11.3696  11.6834  12.2762  12.4408  12.9591  13.7588  13.8649
    14.8305  15.1081  18.8112  22.0108

     occupation numbers 
     1.0000   1.0000   1.0000   1.0000   1.0000   1.0000   1.0000   1.0000
     1.0000   1.0000   1.0000   1.0000   1.0000   1.0000   1.0000   1.0000
     1.0000   1.0000   1.0000   1.0000   1.0000   1.0013   0.4702   0.2262
     0.0000   0.0000   0.0000   0.0000

          k = 0.3311 0.3311-0.3297 (   921 PWs)   bands (ev):

   -82.8971 -79.7267 -46.3284 -46.3132 -46.2462 -43.2746 -43.2561 -43.2193
    -5.6066  -5.2252   6.4701   6.7816   8.1482   8.3303   8.6217   8.9693
    10.7384  11.3636  11.5183  12.4458  12.5762  13.0290  13.7616  13.8022
    15.1667  15.2318  18.1339  20.4072

     occupation numbers 
     1.0000   1.0000   1.0000   1.0000   1.0000   1.0000   1.0000   1.0000
     1.0000   1.0000   1.0000   1.0000   1.0000   1.0000   1.0000   1.0000
     1.0000   1.0000   1.0000   1.0000   1.0000   1.0037   0.4628   0.3597
     0.0000   0.0000   0.0000   0.0000

          k =-0.6608 0.6608 0.0000 (   908 PWs)   bands (ev):

   -82.8962 -79.7257 -46.3272 -46.3271 -46.2444 -43.2731 -43.2731 -43.2174
    -5.1506  -5.1504   6.7193   6.8646   7.3837   7.6745   8.2075   8.4006
    11.2867  11.4318  11.4722  12.2438  12.4791  13.6123  13.6794  13.7243
    15.0246  15.1913  21.9082  21.9890

     occupation numbers 
     1.0000   1.0000   1.0000   1.0000   1.0000   1.0000   1.0000   1.0000
     1.0000   1.0000   1.0000   1.0000   1.0000   1.0000   1.0000   1.0000
     1.0000   1.0000   1.0000   1.0000   1.0000   0.8573   0.6878   0.5639
     0.0000   0.0000   0.0000   0.0000

          k = 0.1662 0.1662 0.1662 (   939 PWs)   bands (ev):

   -82.8988 -79.7287 -46.3077 -46.3077 -46.2492 -43.2496 -43.2496 -43.2231
    -6.2275  -5.5922   6.4818   8.3116   8.3116   8.7093   9.6141   9.6141
    10.9210  10.9210  11.2854  12.6019  12.6019  13.2290  13.2290  13.3314
    15.1079  15.1079  16.1967  18.1433

     occupation numbers 
     1.0000   1.0000   1.0000   1.0000   1.0000   1.0000   1.0000   1.0000
     1.0000   1.0000   1.0000   1.0000   1.0000   1.0000   1.0000   1.0000
     1.0000   1.0000   1.0000   1.0000   1.0000   1.0373   1.0373   1.0713
     0.0000   0.0000   0.0000   0.0000

          k =-0.8257 0.4959 0.4959 (   898 PWs)   bands (ev):

   -82.8970 -79.7267 -46.3281 -46.3125 -46.2458 -43.2744 -43.2556 -43.2192
    -5.4965  -5.3362   6.2214   6.7767   8.1587   8.1734   9.3324   9.3807
    10.4029  11.3909  11.5854  12.0235  12.1591  13.1935  13.7399  13.8516
    14.6934  15.4587  19.6261  19.7199

     occupation numbers 
     1.0000   1.0000   1.0000   1.0000   1.0000   1.0000   1.0000   1.0000
     1.0000   1.0000   1.0000   1.0000   1.0000   1.0000   1.0000   1.0000
     1.0000   1.0000   1.0000   1.0000   1.0000   1.0272   0.5212   0.2515
     0.0000   0.0000   0.0000   0.0000

     the Fermi energy is    13.7856 ev

!    total energy              =    -678.70845541 Ry
     estimated scf accuracy    <          3.6E-11 Ry
     smearing contrib. (-TS)   =      -0.00899672 Ry
     internal energy E=F+TS    =    -678.69945869 Ry

     The total energy is F=E-TS. E is the sum of the following terms:
     one-electron contribution =    -365.14703373 Ry
     hartree contribution      =     209.17907540 Ry
     xc contribution           =     -79.31621549 Ry
     ewald contribution        =    -425.18714290 Ry
     one-center paw contrib.   =     -18.22814197 Ry
      -> PAW hartree energy AE =      53.43986166 Ry
      -> PAW hartree energy PS =     -53.21575033 Ry
      -> PAW xc energy AE      =     -32.54493319 Ry
      -> PAW xc energy PS      =      14.09267989 Ry
      -> total E_H with PAW    =     209.40318673 Ry
      -> total E_XC with PAW   =     -97.76846879 Ry

     total magnetization       =     0.00 Bohr mag/cell
     absolute magnetization    =     5.06 Bohr mag/cell

     convergence has been achieved in  17 iterations

     Writing output data file ./tmp/CoO.save/
 
     init_run     :      1.41s CPU      1.46s WALL (       1 calls)
     electrons    :     26.50s CPU     27.92s WALL (       1 calls)

     Called by init_run:
     wfcinit      :      0.46s CPU      0.47s WALL (       1 calls)
     wfcinit:atom :      0.00s CPU      0.00s WALL (      12 calls)
     wfcinit:wfcr :      0.44s CPU      0.44s WALL (      12 calls)
     potinit      :      0.28s CPU      0.29s WALL (       1 calls)
     hinit0       :      0.59s CPU      0.59s WALL (       1 calls)

     Called by electrons:
     c_bands      :     15.36s CPU     15.43s WALL (      17 calls)
     sum_band     :      5.75s CPU      6.30s WALL (      17 calls)
     v_of_rho     :      2.14s CPU      2.28s WALL (      18 calls)
     v_h          :      0.01s CPU      0.04s WALL (      18 calls)
     v_xc         :      2.13s CPU      2.25s WALL (      18 calls)
     newd         :      1.16s CPU      1.87s WALL (      18 calls)
     PAW_pot      :      2.14s CPU      2.15s WALL (      18 calls)
     mix_rho      :      0.14s CPU      0.14s WALL (      17 calls)

     Called by c_bands:
     init_us_2    :      0.17s CPU      0.18s WALL (     420 calls)
     cegterg      :     14.81s CPU     14.87s WALL (     204 calls)

     Called by sum_band:
     sum_band:wei :      0.01s CPU      0.01s WALL (      17 calls)
     sum_band:loo :      3.36s CPU      3.37s WALL (      17 calls)
     sum_band:buf :      0.01s CPU      0.01s WALL (     204 calls)
     sum_band:ini :      0.08s CPU      0.09s WALL (     204 calls)
     sum_band:cal :      0.06s CPU      0.06s WALL (     204 calls)
     sum_band:bec :      0.00s CPU      0.00s WALL (     204 calls)
     addusdens    :      2.28s CPU      2.82s WALL (      17 calls)
     addusd:skk   :      0.00s CPU      0.00s WALL (      51 calls)
     addusd:dgemm :      0.46s CPU      0.93s WALL (     102 calls)
     addusd:qvan2 :      1.75s CPU      1.75s WALL (     102 calls)

     Called by *egterg:
     cdiaghg      :      0.39s CPU      0.39s WALL (     592 calls)
     cegterg:over :      0.17s CPU      0.17s WALL (     388 calls)
     cegterg:upda :      0.09s CPU      0.09s WALL (     388 calls)
     cegterg:last :      0.16s CPU      0.16s WALL (     328 calls)
     h_psi        :     14.13s CPU     14.18s WALL (     604 calls)
     s_psi        :      0.13s CPU      0.13s WALL (     604 calls)
     g_psi        :      0.04s CPU      0.04s WALL (     388 calls)

     Called by h_psi:
     h_psi:calbec :      0.14s CPU      0.14s WALL (     604 calls)
     vloc_psi     :     13.84s CPU     13.89s WALL (     604 calls)
     add_vuspsi   :      0.14s CPU      0.14s WALL (     604 calls)

     General routines
     calbec       :      0.19s CPU      0.19s WALL (     808 calls)
     fft          :      0.55s CPU      0.57s WALL (     444 calls)
     ffts         :      0.03s CPU      0.03s WALL (      70 calls)
     fftw         :     14.99s CPU     15.04s WALL (   32916 calls)
     interpolate  :      0.07s CPU      0.07s WALL (      36 calls)
 
     Parallel routines

     PAW routines
     PAW_pot      :      2.14s CPU      2.15s WALL (      18 calls)
     PAW_symme    :      0.00s CPU      0.00s WALL (      35 calls)
 
     PWSCF        :     28.08s CPU     29.57s WALL

 
   This run was terminated on:  14:53:36   7Jun2021            

=------------------------------------------------------------------------------=
   JOB DONE.
=------------------------------------------------------------------------------=
