
     Program PROJWFC v.6.7MaX starts on  7Jun2021 at 14:55:32 

     This program is part of the open-source Quantum ESPRESSO suite
     for quantum simulation of materials; please cite
         "P. Giannozzi et al., J. Phys.:Condens. Matter 21 395502 (2009);
         "P. Giannozzi et al., J. Phys.:Condens. Matter 29 465901 (2017);
          URL http://www.quantum-espresso.org", 
     in publications or presentations arising from this work. More details at
     http://www.quantum-espresso.org/quote

     Parallel version (MPI), running on     1 processors

     MPI processes distributed on     1 nodes

     Reading xml data from directory:

     ./tmp/CoO.save/
     Message from routine volume:
     axis vectors are left-handed
     file O.pbesol-n-kjpaw_psl.0.1.UPF: wavefunction(s)  2P renormalized

     IMPORTANT: XC functional enforced from input :
     Exchange-correlation= PBESOL
                           (   1   4  10   8   0   0   0)
     Any further DFT definition will be discarded
     Please, verify this is what you really want

 
     G-vector sticks info
     --------------------
     sticks:   dense  smooth     PW     G-vecs:    dense   smooth      PW
     Sum        1201     597    207                20701     7367    1491
 

     Check: negative core charge=   -0.000039

     Gaussian broadening (read from input): ngauss,degauss=   0    0.005000


     Calling projwave .... 
 
  Problem Sizes 
  natomwfc =           34
  nbnd     =           40
  nkstot   =           64
  npwx     =          954
  nkb      =           52
 

     Atomic states used for projection
     (read from pseudopotential files):

     state #   1: atom   1 (Co1), wfc  1 (l=0 m= 1)
     state #   2: atom   1 (Co1), wfc  2 (l=1 m= 1)
     state #   3: atom   1 (Co1), wfc  2 (l=1 m= 2)
     state #   4: atom   1 (Co1), wfc  2 (l=1 m= 3)
     state #   5: atom   1 (Co1), wfc  3 (l=2 m= 1)
     state #   6: atom   1 (Co1), wfc  3 (l=2 m= 2)
     state #   7: atom   1 (Co1), wfc  3 (l=2 m= 3)
     state #   8: atom   1 (Co1), wfc  3 (l=2 m= 4)
     state #   9: atom   1 (Co1), wfc  3 (l=2 m= 5)
     state #  10: atom   1 (Co1), wfc  4 (l=0 m= 1)
     state #  11: atom   1 (Co1), wfc  5 (l=1 m= 1)
     state #  12: atom   1 (Co1), wfc  5 (l=1 m= 2)
     state #  13: atom   1 (Co1), wfc  5 (l=1 m= 3)
     state #  14: atom   2 (Co2), wfc  1 (l=0 m= 1)
     state #  15: atom   2 (Co2), wfc  2 (l=1 m= 1)
     state #  16: atom   2 (Co2), wfc  2 (l=1 m= 2)
     state #  17: atom   2 (Co2), wfc  2 (l=1 m= 3)
     state #  18: atom   2 (Co2), wfc  3 (l=2 m= 1)
     state #  19: atom   2 (Co2), wfc  3 (l=2 m= 2)
     state #  20: atom   2 (Co2), wfc  3 (l=2 m= 3)
     state #  21: atom   2 (Co2), wfc  3 (l=2 m= 4)
     state #  22: atom   2 (Co2), wfc  3 (l=2 m= 5)
     state #  23: atom   2 (Co2), wfc  4 (l=0 m= 1)
     state #  24: atom   2 (Co2), wfc  5 (l=1 m= 1)
     state #  25: atom   2 (Co2), wfc  5 (l=1 m= 2)
     state #  26: atom   2 (Co2), wfc  5 (l=1 m= 3)
     state #  27: atom   3 (O  ), wfc  1 (l=0 m= 1)
     state #  28: atom   3 (O  ), wfc  2 (l=1 m= 1)
     state #  29: atom   3 (O  ), wfc  2 (l=1 m= 2)
     state #  30: atom   3 (O  ), wfc  2 (l=1 m= 3)
     state #  31: atom   4 (O  ), wfc  1 (l=0 m= 1)
     state #  32: atom   4 (O  ), wfc  2 (l=1 m= 1)
     state #  33: atom   4 (O  ), wfc  2 (l=1 m= 2)
     state #  34: atom   4 (O  ), wfc  2 (l=1 m= 3)

 k =   0.0000000000  0.0000000000  0.0000000000
==== e(   1) =   -82.89885 eV ==== 
     psi = 0.990*[#   1]+0.004*[#  23]+0.001*[#  10]
    |psi|^2 = 1.000
==== e(   2) =   -79.72864 eV ==== 
     psi = 0.990*[#  14]+0.004*[#  10]+0.002*[#  23]
    |psi|^2 = 1.000
==== e(   3) =   -46.30745 eV ==== 
     psi = 0.331*[#   2]+0.331*[#   3]+0.331*[#   4]+0.002*[#  11]+0.002*[#  12]
          +0.002*[#  13]
    |psi|^2 = 1.000
==== e(   4) =   -46.30745 eV ==== 
     psi = 0.331*[#   2]+0.331*[#   3]+0.331*[#   4]+0.002*[#  11]+0.002*[#  12]
          +0.002*[#  13]
    |psi|^2 = 1.000
==== e(   5) =   -46.24894 eV ==== 
     psi = 0.331*[#   2]+0.331*[#   3]+0.331*[#   4]+0.002*[#  24]+0.002*[#  25]
          +0.002*[#  26]
    |psi|^2 = 1.000
==== e(   6) =   -43.24928 eV ==== 
     psi = 0.332*[#  15]+0.332*[#  16]+0.332*[#  17]+0.001*[#  24]+0.001*[#  25]
          +0.001*[#  26]
    |psi|^2 = 1.000
==== e(   7) =   -43.24928 eV ==== 
     psi = 0.332*[#  15]+0.332*[#  16]+0.332*[#  17]+0.001*[#  24]+0.001*[#  25]
          +0.001*[#  26]
    |psi|^2 = 1.000
==== e(   8) =   -43.22260 eV ==== 
     psi = 0.331*[#  15]+0.331*[#  16]+0.331*[#  17]+0.002*[#  11]+0.002*[#  12]
          +0.002*[#  13]
    |psi|^2 = 1.000
==== e(   9) =    -6.51111 eV ==== 
     psi = 0.329*[#  27]+0.329*[#  31]+0.170*[#  10]+0.166*[#  23]+0.003*[#  14]
          +0.003*[#   1]
    |psi|^2 = 1.000
==== e(  10) =    -5.22924 eV ==== 
     psi = 0.372*[#  27]+0.372*[#  31]+0.042*[#  11]+0.042*[#  12]+0.042*[#  13]
          +0.042*[#  24]+0.042*[#  25]+0.042*[#  26]
    |psi|^2 = 1.000
==== e(  11) =     5.54473 eV ==== 
     psi = 0.122*[#  10]+0.120*[#  23]+0.103*[#  28]+0.103*[#  29]+0.103*[#  30]
          +0.103*[#  32]+0.103*[#  33]+0.103*[#  34]+0.029*[#   6]+0.029*[#   7]
          +0.029*[#   9]+0.017*[#  19]+0.017*[#  20]+0.017*[#  22]+0.002*[#  14]
          +0.002*[#   1]
    |psi|^2 = 0.999
==== e(  12) =     8.02423 eV ==== 
     psi = 0.158*[#   5]+0.158*[#   8]+0.091*[#  28]+0.091*[#  29]+0.091*[#  30]
          +0.091*[#  32]+0.091*[#  33]+0.091*[#  34]+0.040*[#  18]+0.040*[#  21]
          +0.014*[#   6]+0.014*[#   7]+0.014*[#   9]+0.004*[#  19]+0.004*[#  20]
          +0.004*[#  22]
    |psi|^2 = 0.998
==== e(  13) =     8.02423 eV ==== 
     psi = 0.158*[#   5]+0.158*[#   8]+0.091*[#  28]+0.091*[#  29]+0.091*[#  30]
          +0.091*[#  32]+0.091*[#  33]+0.091*[#  34]+0.040*[#  18]+0.040*[#  21]
          +0.014*[#   6]+0.014*[#   7]+0.014*[#   9]+0.004*[#  19]+0.004*[#  20]
          +0.004*[#  22]
    |psi|^2 = 0.998
==== e(  14) =    10.52271 eV ==== 
     psi = 0.162*[#  28]+0.162*[#  29]+0.162*[#  30]+0.162*[#  32]+0.162*[#  33]
          +0.162*[#  34]+0.004*[#  11]+0.004*[#  12]+0.004*[#  13]+0.004*[#  24]
          +0.004*[#  25]+0.004*[#  26]
    |psi|^2 = 0.997
==== e(  15) =    10.52271 eV ==== 
     psi = 0.162*[#  28]+0.162*[#  29]+0.162*[#  30]+0.162*[#  32]+0.162*[#  33]
          +0.162*[#  34]+0.004*[#  11]+0.004*[#  12]+0.004*[#  13]+0.004*[#  24]
          +0.004*[#  25]+0.004*[#  26]
    |psi|^2 = 0.997
==== e(  16) =    10.54959 eV ==== 
     psi = 0.162*[#  28]+0.162*[#  29]+0.162*[#  30]+0.162*[#  32]+0.162*[#  33]
          +0.162*[#  34]+0.004*[#  24]+0.004*[#  25]+0.004*[#  26]+0.004*[#  11]
          +0.004*[#  12]+0.004*[#  13]
    |psi|^2 = 0.997
==== e(  17) =    10.86947 eV ==== 
     psi = 0.299*[#   6]+0.299*[#   7]+0.299*[#   9]+0.031*[#   5]+0.031*[#   8]
          +0.011*[#  19]+0.011*[#  20]+0.011*[#  22]
    |psi|^2 = 0.996
==== e(  18) =    10.86947 eV ==== 
     psi = 0.299*[#   6]+0.299*[#   7]+0.299*[#   9]+0.031*[#   5]+0.031*[#   8]
          +0.011*[#  19]+0.011*[#  20]+0.011*[#  22]
    |psi|^2 = 0.996
==== e(  19) =    11.06629 eV ==== 
     psi = 0.286*[#   6]+0.286*[#   7]+0.286*[#   9]+0.028*[#  19]+0.028*[#  20]
          +0.028*[#  22]+0.007*[#  28]+0.007*[#  29]+0.007*[#  30]+0.007*[#  32]
          +0.007*[#  33]+0.007*[#  34]+0.005*[#  10]+0.004*[#  23]
    |psi|^2 = 0.996
==== e(  20) =    11.72797 eV ==== 
     psi = 0.272*[#   5]+0.272*[#   8]+0.123*[#  18]+0.123*[#  21]+0.023*[#  28]
          +0.023*[#  29]+0.023*[#  30]+0.023*[#  32]+0.023*[#  33]+0.023*[#  34]
          +0.015*[#  19]+0.015*[#  20]+0.015*[#  22]+0.007*[#   6]+0.007*[#   7]
          +0.007*[#   9]
    |psi|^2 = 0.995
==== e(  21) =    11.72797 eV ==== 
     psi = 0.272*[#   5]+0.272*[#   8]+0.123*[#  18]+0.123*[#  21]+0.023*[#  28]
          +0.023*[#  29]+0.023*[#  30]+0.023*[#  32]+0.023*[#  33]+0.023*[#  34]
          +0.015*[#  19]+0.015*[#  20]+0.015*[#  22]+0.007*[#   6]+0.007*[#   7]
          +0.007*[#   9]
    |psi|^2 = 0.995
==== e(  22) =    13.30173 eV ==== 
     psi = 0.296*[#  19]+0.296*[#  20]+0.296*[#  22]+0.026*[#  18]+0.026*[#  21]
          +0.012*[#   6]+0.012*[#   7]+0.012*[#   9]+0.003*[#  28]+0.003*[#  29]
          +0.003*[#  30]+0.003*[#  32]+0.003*[#  33]+0.003*[#  34]
    |psi|^2 = 0.994
==== e(  23) =    13.30173 eV ==== 
     psi = 0.296*[#  19]+0.296*[#  20]+0.296*[#  22]+0.026*[#  18]+0.026*[#  21]
          +0.012*[#   6]+0.012*[#   7]+0.012*[#   9]+0.003*[#  28]+0.003*[#  29]
          +0.003*[#  30]+0.003*[#  32]+0.003*[#  33]+0.003*[#  34]
    |psi|^2 = 0.994
==== e(  24) =    13.54416 eV ==== 
     psi = 0.284*[#  19]+0.284*[#  20]+0.284*[#  22]+0.016*[#   6]+0.016*[#   7]
          +0.016*[#   9]+0.014*[#  28]+0.014*[#  29]+0.014*[#  30]+0.014*[#  32]
          +0.014*[#  33]+0.014*[#  34]+0.004*[#  23]+0.004*[#  10]
    |psi|^2 = 0.993
==== e(  25) =    14.61255 eV ==== 
     psi = 0.339*[#  10]+0.312*[#  23]+0.169*[#  27]+0.169*[#  31]+0.003*[#  14]
          +0.002*[#   1]
    |psi|^2 = 0.996
==== e(  26) =    15.42215 eV ==== 
     psi = 0.308*[#  18]+0.308*[#  21]+0.048*[#  28]+0.048*[#  29]+0.048*[#  30]
          +0.048*[#  32]+0.048*[#  33]+0.048*[#  34]+0.038*[#   5]+0.038*[#   8]
          +0.004*[#  19]+0.004*[#  20]+0.004*[#  22]
    |psi|^2 = 0.997
==== e(  27) =    15.42215 eV ==== 
     psi = 0.308*[#  18]+0.308*[#  21]+0.048*[#  28]+0.048*[#  29]+0.048*[#  30]
          +0.048*[#  32]+0.048*[#  33]+0.048*[#  34]+0.038*[#   5]+0.038*[#   8]
          +0.004*[#  19]+0.004*[#  20]+0.004*[#  22]
    |psi|^2 = 0.997
==== e(  28) =    18.51318 eV ==== 
     psi = 0.120*[#  11]+0.120*[#  12]+0.120*[#  13]+0.119*[#  27]+0.119*[#  31]
          +0.114*[#  24]+0.114*[#  25]+0.114*[#  26]
    |psi|^2 = 0.945
==== e(  29) =    23.15995 eV ==== 
     psi = 0.374*[#  23]+0.343*[#  10]+0.040*[#  28]+0.040*[#  29]+0.040*[#  30]
          +0.040*[#  32]+0.040*[#  33]+0.040*[#  34]+0.002*[#   1]+0.002*[#  14]
          +0.002*[#  19]+0.002*[#  20]+0.002*[#  22]
    |psi|^2 = 0.970
==== e(  30) =    26.95008 eV ==== 
     psi = 0.167*[#  11]+0.167*[#  12]+0.167*[#  13]+0.144*[#  24]+0.144*[#  25]
          +0.144*[#  26]
    |psi|^2 = 0.936
==== e(  31) =    26.95008 eV ==== 
     psi = 0.167*[#  11]+0.167*[#  12]+0.167*[#  13]+0.144*[#  24]+0.144*[#  25]
          +0.144*[#  26]
    |psi|^2 = 0.936
==== e(  32) =    30.04512 eV ==== 
 
    |psi|^2 = 0.001
==== e(  33) =    31.67863 eV ==== 
     psi = 0.002*[#  19]+0.002*[#  20]+0.002*[#  22]
    |psi|^2 = 0.009
==== e(  34) =    31.67863 eV ==== 
     psi = 0.002*[#  19]+0.002*[#  20]+0.002*[#  22]
    |psi|^2 = 0.009
==== e(  35) =    31.83324 eV ==== 
     psi = 0.002*[#  19]+0.002*[#  20]+0.002*[#  22]
    |psi|^2 = 0.009
==== e(  36) =    34.07701 eV ==== 
     psi = 0.013*[#  23]+0.010*[#  10]
    |psi|^2 = 0.032
==== e(  37) =    35.26593 eV ==== 
     psi = 0.166*[#  24]+0.166*[#  25]+0.166*[#  26]+0.150*[#  11]+0.150*[#  12]
          +0.150*[#  13]+0.004*[#  28]+0.004*[#  29]+0.004*[#  30]+0.004*[#  32]
          +0.004*[#  33]+0.004*[#  34]+0.001*[#   2]+0.001*[#   3]+0.001*[#   4]
          +0.001*[#  15]+0.001*[#  16]+0.001*[#  17]
    |psi|^2 = 0.976
==== e(  38) =    35.26593 eV ==== 
     psi = 0.166*[#  24]+0.166*[#  25]+0.166*[#  26]+0.150*[#  11]+0.150*[#  12]
          +0.150*[#  13]+0.004*[#  28]+0.004*[#  29]+0.004*[#  30]+0.004*[#  32]
          +0.004*[#  33]+0.004*[#  34]+0.001*[#   2]+0.001*[#   3]+0.001*[#   4]
          +0.001*[#  15]+0.001*[#  16]+0.001*[#  17]
    |psi|^2 = 0.976
==== e(  39) =    35.39774 eV ==== 
     psi = 0.158*[#  24]+0.158*[#  25]+0.158*[#  26]+0.158*[#  11]+0.158*[#  12]
          +0.158*[#  13]+0.003*[#  28]+0.003*[#  29]+0.003*[#  30]+0.003*[#  32]
          +0.003*[#  33]+0.003*[#  34]+0.001*[#   2]+0.001*[#   3]+0.001*[#   4]
          +0.001*[#  15]+0.001*[#  16]+0.001*[#  17]
    |psi|^2 = 0.974
==== e(  40) =    38.04363 eV ==== 
 
    |psi|^2 = 0.004

 k =   0.2479678040 -0.0824331535 -0.0824331535
==== e(   1) =   -82.89829 eV ==== 
     psi = 0.976*[#   1]+0.005*[#  11]+0.005*[#  12]+0.005*[#  13]+0.002*[#  24]
          +0.002*[#  25]+0.002*[#  26]
    |psi|^2 = 1.000
==== e(   2) =   -79.72797 eV ==== 
     psi = 0.976*[#  14]+0.005*[#  24]+0.005*[#  25]+0.005*[#  26]+0.002*[#  11]
          +0.002*[#  12]+0.002*[#  13]
    |psi|^2 = 1.000
==== e(   3) =   -46.31466 eV ==== 
     psi = 0.332*[#   2]+0.332*[#   3]+0.332*[#   4]
    |psi|^2 = 1.000
==== e(   4) =   -46.30919 eV ==== 
     psi = 0.332*[#   2]+0.332*[#   3]+0.332*[#   4]+0.001*[#  11]+0.001*[#  12]
          +0.001*[#  13]
    |psi|^2 = 1.000
==== e(   5) =   -46.24805 eV ==== 
     psi = 0.331*[#   2]+0.331*[#   3]+0.331*[#   4]+0.002*[#  24]+0.002*[#  25]
          +0.002*[#  26]
    |psi|^2 = 1.000
==== e(   6) =   -43.25787 eV ==== 
     psi = 0.333*[#  15]+0.333*[#  16]+0.333*[#  17]
    |psi|^2 = 1.000
==== e(   7) =   -43.25140 eV ==== 
     psi = 0.332*[#  15]+0.332*[#  16]+0.332*[#  17]+0.001*[#  24]+0.001*[#  25]
          +0.001*[#  26]
    |psi|^2 = 1.000
==== e(   8) =   -43.22150 eV ==== 
     psi = 0.331*[#  15]+0.331*[#  16]+0.331*[#  17]+0.002*[#  11]+0.002*[#  12]
          +0.002*[#  13]
    |psi|^2 = 1.000
==== e(   9) =    -6.25636 eV ==== 
     psi = 0.324*[#  27]+0.324*[#  31]+0.097*[#  10]+0.094*[#  23]+0.025*[#  11]
          +0.025*[#  12]+0.025*[#  13]+0.025*[#  24]+0.025*[#  25]+0.025*[#  26]
          +0.004*[#  14]+0.004*[#   1]
    |psi|^2 = 1.000
==== e(  10) =    -5.19875 eV ==== 
     psi = 0.387*[#  27]+0.387*[#  31]+0.035*[#  11]+0.035*[#  12]+0.035*[#  13]
          +0.035*[#  24]+0.035*[#  25]+0.035*[#  26]+0.003*[#   5]+0.003*[#   8]
          +0.003*[#  18]+0.003*[#  21]
    |psi|^2 = 0.999
==== e(  11) =     5.99260 eV ==== 
     psi = 0.102*[#  28]+0.102*[#  29]+0.102*[#  30]+0.102*[#  32]+0.102*[#  33]
          +0.102*[#  34]+0.092*[#  10]+0.091*[#  23]+0.027*[#   6]+0.027*[#   7]
          +0.027*[#   9]+0.014*[#  19]+0.014*[#  20]+0.014*[#  22]+0.011*[#  24]
          +0.011*[#  25]+0.011*[#  26]+0.011*[#  11]+0.011*[#  12]+0.011*[#  13]
          +0.002*[#   5]+0.002*[#   8]+0.002*[#  14]+0.002*[#   1]
    |psi|^2 = 0.999
==== e(  12) =     7.85421 eV ==== 
     psi = 0.118*[#   5]+0.118*[#   8]+0.096*[#  28]+0.096*[#  29]+0.096*[#  30]
          +0.096*[#  32]+0.096*[#  33]+0.096*[#  34]+0.018*[#   6]+0.018*[#   7]
          +0.018*[#   9]+0.017*[#  18]+0.017*[#  21]+0.013*[#  11]+0.013*[#  12]
          +0.013*[#  13]+0.012*[#  24]+0.012*[#  25]+0.012*[#  26]+0.007*[#  19]
          +0.007*[#  20]+0.007*[#  22]+0.002*[#  23]
    |psi|^2 = 0.998
==== e(  13) =     8.11108 eV ==== 
     psi = 0.160*[#   5]+0.160*[#   8]+0.094*[#  28]+0.094*[#  29]+0.094*[#  30]
          +0.094*[#  32]+0.094*[#  33]+0.094*[#  34]+0.037*[#  18]+0.037*[#  21]
          +0.006*[#   6]+0.006*[#   7]+0.006*[#   9]+0.003*[#  19]+0.003*[#  20]
          +0.003*[#  22]+0.003*[#  24]+0.003*[#  25]+0.003*[#  26]+0.002*[#  11]
          +0.002*[#  12]+0.002*[#  13]
    |psi|^2 = 0.998
==== e(  14) =     8.69308 eV ==== 
     psi = 0.112*[#  28]+0.112*[#  29]+0.112*[#  30]+0.112*[#  32]+0.112*[#  33]
          +0.112*[#  34]+0.048*[#  10]+0.033*[#  18]+0.033*[#  21]+0.033*[#  23]
          +0.032*[#   5]+0.032*[#   8]+0.021*[#  27]+0.021*[#  31]+0.019*[#   6]
          +0.019*[#   7]+0.019*[#   9]+0.003*[#  24]+0.003*[#  25]+0.003*[#  26]
          +0.002*[#  19]+0.002*[#  20]+0.002*[#  22]+0.001*[#   1]
    |psi|^2 = 0.997
==== e(  15) =     9.73382 eV ==== 
     psi = 0.119*[#  28]+0.119*[#  29]+0.119*[#  30]+0.119*[#  32]+0.119*[#  33]
          +0.119*[#  34]+0.030*[#   6]+0.030*[#   7]+0.030*[#   9]+0.027*[#  18]
          +0.027*[#  21]+0.025*[#   5]+0.025*[#   8]+0.016*[#  19]+0.016*[#  20]
          +0.016*[#  22]+0.006*[#  11]+0.006*[#  12]+0.006*[#  13]+0.004*[#  23]
          +0.003*[#  24]+0.003*[#  25]+0.003*[#  26]+0.003*[#  10]+0.001*[#  27]
          +0.001*[#  31]
    |psi|^2 = 0.996
==== e(  16) =     9.76401 eV ==== 
     psi = 0.113*[#  28]+0.113*[#  29]+0.113*[#  30]+0.113*[#  32]+0.113*[#  33]
          +0.113*[#  34]+0.060*[#   6]+0.060*[#   7]+0.060*[#   9]+0.026*[#   5]
          +0.026*[#   8]+0.018*[#  18]+0.018*[#  21]+0.008*[#  19]+0.008*[#  20]
          +0.008*[#  22]+0.006*[#  11]+0.006*[#  12]+0.006*[#  13]+0.004*[#  24]
          +0.004*[#  25]+0.004*[#  26]
    |psi|^2 = 0.997
==== e(  17) =    10.91753 eV ==== 
     psi = 0.279*[#   6]+0.279*[#   7]+0.279*[#   9]+0.024*[#   5]+0.024*[#   8]
          +0.014*[#  19]+0.014*[#  20]+0.014*[#  22]+0.009*[#  28]+0.009*[#  29]
          +0.009*[#  30]+0.009*[#  32]+0.009*[#  33]+0.009*[#  34]+0.008*[#  10]
          +0.002*[#  27]+0.002*[#  31]
    |psi|^2 = 0.995
==== e(  18) =    11.28752 eV ==== 
     psi = 0.259*[#   6]+0.259*[#   7]+0.259*[#   9]+0.028*[#  28]+0.028*[#  29]
          +0.028*[#  30]+0.028*[#  32]+0.028*[#  33]+0.028*[#  34]+0.020*[#  18]
          +0.020*[#  21]+0.005*[#   5]+0.005*[#   8]+0.002*[#  19]+0.002*[#  20]
          +0.002*[#  22]
    |psi|^2 = 0.998
==== e(  19) =    11.36426 eV ==== 
     psi = 0.257*[#   6]+0.257*[#   7]+0.257*[#   9]+0.023*[#   5]+0.023*[#   8]
          +0.021*[#  28]+0.021*[#  29]+0.021*[#  30]+0.021*[#  32]+0.021*[#  33]
          +0.021*[#  34]+0.017*[#  23]+0.008*[#  19]+0.008*[#  20]+0.008*[#  22]
          +0.005*[#  27]+0.005*[#  31]
    |psi|^2 = 0.998
==== e(  20) =    11.97147 eV ==== 
     psi = 0.274*[#   5]+0.274*[#   8]+0.075*[#  18]+0.075*[#  21]+0.038*[#  28]
          +0.038*[#  29]+0.038*[#  30]+0.038*[#  32]+0.038*[#  33]+0.038*[#  34]
          +0.016*[#  19]+0.016*[#  20]+0.016*[#  22]+0.004*[#   6]+0.004*[#   7]
          +0.004*[#   9]+0.003*[#  24]+0.003*[#  25]+0.003*[#  26]
    |psi|^2 = 0.997
==== e(  21) =    12.33466 eV ==== 
     psi = 0.251*[#   5]+0.251*[#   8]+0.055*[#  28]+0.055*[#  29]+0.055*[#  30]
          +0.055*[#  32]+0.055*[#  33]+0.055*[#  34]+0.019*[#  19]+0.019*[#  20]
          +0.019*[#  22]+0.014*[#  23]+0.012*[#  27]+0.012*[#  31]+0.011*[#   6]
          +0.011*[#   7]+0.011*[#   9]+0.005*[#  18]+0.005*[#  21]+0.005*[#  24]
          +0.005*[#  25]+0.005*[#  26]+0.003*[#  10]+0.002*[#  11]+0.002*[#  12]
          +0.002*[#  13]
    |psi|^2 = 0.997
==== e(  22) =    13.23866 eV ==== 
     psi = 0.274*[#  19]+0.274*[#  20]+0.274*[#  22]+0.024*[#  18]+0.024*[#  21]
          +0.011*[#   6]+0.011*[#   7]+0.011*[#   9]+0.010*[#  28]+0.010*[#  29]
          +0.010*[#  30]+0.010*[#  32]+0.010*[#  33]+0.010*[#  34]+0.008*[#  23]
          +0.005*[#   5]+0.005*[#   8]+0.003*[#  27]+0.003*[#  31]+0.001*[#  11]
          +0.001*[#  12]+0.001*[#  13]
    |psi|^2 = 0.991
==== e(  23) =    13.46699 eV ==== 
     psi = 0.301*[#  19]+0.301*[#  20]+0.301*[#  22]+0.012*[#  18]+0.012*[#  21]
          +0.009*[#  28]+0.009*[#  29]+0.009*[#  30]+0.009*[#  32]+0.009*[#  33]
          +0.009*[#  34]+0.003*[#   6]+0.003*[#   7]+0.003*[#   9]+0.002*[#   5]
          +0.002*[#   8]
    |psi|^2 = 0.995
==== e(  24) =    13.59086 eV ==== 
     psi = 0.286*[#  19]+0.286*[#  20]+0.286*[#  22]+0.013*[#  28]+0.013*[#  29]
          +0.013*[#  30]+0.013*[#  32]+0.013*[#  33]+0.013*[#  34]+0.010*[#  10]
          +0.009*[#  18]+0.009*[#  21]+0.007*[#   6]+0.007*[#   7]+0.007*[#   9]
          +0.003*[#  27]+0.003*[#  31]
    |psi|^2 = 0.994
==== e(  25) =    14.80787 eV ==== 
     psi = 0.342*[#  18]+0.342*[#  21]+0.036*[#  10]+0.024*[#  27]+0.024*[#  31]
          +0.022*[#  28]+0.022*[#  29]+0.022*[#  30]+0.022*[#  32]+0.022*[#  33]
          +0.022*[#  34]+0.012*[#  19]+0.012*[#  20]+0.012*[#  22]+0.010*[#   5]
          +0.010*[#   8]+0.007*[#  23]+0.006*[#  24]+0.006*[#  25]+0.006*[#  26]
          +0.005*[#  11]+0.005*[#  12]+0.005*[#  13]+0.001*[#   6]+0.001*[#   7]
          +0.001*[#   9]
    |psi|^2 = 0.997
==== e(  26) =    15.30477 eV ==== 
     psi = 0.336*[#  18]+0.336*[#  21]+0.041*[#  28]+0.041*[#  29]+0.041*[#  30]
          +0.041*[#  32]+0.041*[#  33]+0.041*[#  34]+0.032*[#   5]+0.032*[#   8]
          +0.002*[#  11]+0.002*[#  12]+0.002*[#  13]+0.001*[#  19]+0.001*[#  20]
          +0.001*[#  22]
    |psi|^2 = 0.998
==== e(  27) =    16.27953 eV ==== 
     psi = 0.168*[#  10]+0.159*[#  23]+0.118*[#  27]+0.118*[#  31]+0.033*[#  28]
          +0.033*[#  29]+0.033*[#  30]+0.033*[#  32]+0.033*[#  33]+0.033*[#  34]
          +0.030*[#  11]+0.030*[#  12]+0.030*[#  13]+0.029*[#  18]+0.029*[#  21]
          +0.025*[#  24]+0.025*[#  25]+0.025*[#  26]+0.003*[#  14]+0.002*[#   1]
          +0.002*[#   5]+0.002*[#   8]
    |psi|^2 = 0.996
==== e(  28) =    20.00652 eV ==== 
     psi = 0.111*[#  11]+0.111*[#  12]+0.111*[#  13]+0.107*[#  24]+0.107*[#  25]
          +0.107*[#  26]+0.082*[#  27]+0.082*[#  31]+0.016*[#  28]+0.016*[#  29]
          +0.016*[#  30]+0.016*[#  32]+0.016*[#  33]+0.016*[#  34]+0.006*[#  18]
          +0.006*[#  21]+0.003*[#  19]+0.003*[#  20]+0.003*[#  22]+0.002*[#   5]
          +0.002*[#   8]+0.001*[#   6]+0.001*[#   7]+0.001*[#   9]
    |psi|^2 = 0.946
==== e(  29) =    22.86293 eV ==== 
     psi = 0.367*[#  23]+0.348*[#  10]+0.038*[#  28]+0.038*[#  29]+0.038*[#  30]
          +0.038*[#  32]+0.038*[#  33]+0.038*[#  34]+0.005*[#  24]+0.005*[#  25]
          +0.005*[#  26]+0.003*[#  11]+0.003*[#  12]+0.003*[#  13]+0.002*[#   1]
          +0.002*[#  14]+0.001*[#  19]+0.001*[#  20]+0.001*[#  22]
    |psi|^2 = 0.977
==== e(  30) =    25.19597 eV ==== 
     psi = 0.145*[#  11]+0.145*[#  12]+0.145*[#  13]+0.121*[#  24]+0.121*[#  25]
          +0.121*[#  26]+0.036*[#  10]+0.025*[#  23]+0.009*[#  28]+0.009*[#  29]
          +0.009*[#  30]+0.009*[#  32]+0.009*[#  33]+0.009*[#  34]+0.002*[#  19]
          +0.002*[#  20]+0.002*[#  22]+0.002*[#   1]+0.001*[#   6]+0.001*[#   7]
          +0.001*[#   9]+0.001*[#  27]+0.001*[#  31]
    |psi|^2 = 0.928
==== e(  31) =    27.47529 eV ==== 
     psi = 0.042*[#  24]+0.042*[#  25]+0.042*[#  26]+0.038*[#  11]+0.038*[#  12]
          +0.038*[#  13]+0.024*[#  23]+0.018*[#  10]+0.003*[#  19]+0.003*[#  20]
          +0.003*[#  22]+0.002*[#  28]+0.002*[#  29]+0.002*[#  30]+0.002*[#  32]
          +0.002*[#  33]+0.002*[#  34]+0.001*[#  14]+0.001*[#   1]+0.001*[#   6]
          +0.001*[#   7]+0.001*[#   9]
    |psi|^2 = 0.310
==== e(  32) =    27.56883 eV ==== 
     psi = 0.172*[#  11]+0.172*[#  12]+0.172*[#  13]+0.135*[#  24]+0.135*[#  25]
          +0.135*[#  26]+0.004*[#  28]+0.004*[#  29]+0.004*[#  30]+0.004*[#  32]
          +0.004*[#  33]+0.004*[#  34]
    |psi|^2 = 0.948
==== e(  33) =    30.28234 eV ==== 
     psi = 0.102*[#  23]+0.089*[#  10]+0.073*[#  24]+0.073*[#  25]+0.073*[#  26]
          +0.058*[#  11]+0.058*[#  12]+0.058*[#  13]+0.007*[#  14]+0.006*[#   1]
          +0.003*[#  27]+0.003*[#  31]+0.002*[#  28]+0.002*[#  29]+0.002*[#  30]
          +0.002*[#  32]+0.002*[#  33]+0.002*[#  34]+0.001*[#  19]+0.001*[#  20]
          +0.001*[#  22]
    |psi|^2 = 0.621
==== e(  34) =    30.29772 eV ==== 
     psi = 0.114*[#  24]+0.114*[#  25]+0.114*[#  26]+0.088*[#  11]+0.088*[#  12]
          +0.088*[#  13]+0.003*[#  28]+0.003*[#  29]+0.003*[#  30]+0.003*[#  32]
          +0.003*[#  33]+0.003*[#  34]+0.002*[#  19]+0.002*[#  20]+0.002*[#  22]
          
    |psi|^2 = 0.637
==== e(  35) =    32.03954 eV ==== 
     psi = 0.092*[#  24]+0.092*[#  25]+0.092*[#  26]+0.091*[#  11]+0.091*[#  12]
          +0.091*[#  13]+0.012*[#  23]+0.010*[#  10]+0.001*[#  28]+0.001*[#  29]
          +0.001*[#  30]+0.001*[#  32]+0.001*[#  33]+0.001*[#  34]
    |psi|^2 = 0.591
==== e(  36) =    34.31535 eV ==== 
     psi = 0.021*[#  11]+0.021*[#  12]+0.021*[#  13]+0.012*[#  24]+0.012*[#  25]
          +0.012*[#  26]+0.007*[#  23]+0.005*[#  10]
    |psi|^2 = 0.117
==== e(  37) =    34.93422 eV ==== 
     psi = 0.012*[#  24]+0.012*[#  25]+0.012*[#  26]+0.004*[#  27]+0.004*[#  31]
          +0.002*[#  11]+0.002*[#  12]+0.002*[#  13]
    |psi|^2 = 0.056
==== e(  38) =    36.54712 eV ==== 
     psi = 0.043*[#  24]+0.043*[#  25]+0.043*[#  26]+0.031*[#  11]+0.031*[#  12]
          +0.031*[#  13]
    |psi|^2 = 0.230
==== e(  39) =    36.68386 eV ==== 
     psi = 0.006*[#  11]+0.006*[#  12]+0.006*[#  13]+0.003*[#  24]+0.003*[#  25]
          +0.003*[#  26]
    |psi|^2 = 0.032
==== e(  40) =    37.23346 eV ==== 
     psi = 0.006*[#  23]+0.005*[#  24]+0.005*[#  25]+0.005*[#  26]+0.003*[#  11]
          +0.003*[#  12]+0.003*[#  13]+0.003*[#  10]+0.001*[#  27]+0.001*[#  31]
          +0.001*[#  28]+0.001*[#  29]+0.001*[#  30]+0.001*[#  32]+0.001*[#  33]
          +0.001*[#  34]
    |psi|^2 = 0.041

 k =   0.4959356079 -0.1648663069 -0.1648663069
==== e(   1) =   -82.89715 eV ==== 
     psi = 0.979*[#   1]+0.003*[#  11]+0.003*[#  12]+0.003*[#  13]+0.002*[#  24]
          +0.002*[#  25]+0.002*[#  26]+0.002*[#  10]
    |psi|^2 = 1.000
==== e(   2) =   -79.72663 eV ==== 
     psi = 0.979*[#  14]+0.003*[#  24]+0.003*[#  25]+0.003*[#  26]+0.002*[#  11]
          +0.002*[#  12]+0.002*[#  13]+0.002*[#  23]
    |psi|^2 = 1.000
==== e(   3) =   -46.32851 eV ==== 
     psi = 0.332*[#   2]+0.332*[#   3]+0.332*[#   4]
    |psi|^2 = 1.000
==== e(   4) =   -46.31297 eV ==== 
     psi = 0.332*[#   2]+0.332*[#   3]+0.332*[#   4]
    |psi|^2 = 1.000
==== e(   5) =   -46.24611 eV ==== 
     psi = 0.332*[#   2]+0.332*[#   3]+0.332*[#   4]
    |psi|^2 = 1.000
==== e(   6) =   -43.27462 eV ==== 
     psi = 0.332*[#  15]+0.332*[#  16]+0.332*[#  17]
    |psi|^2 = 1.000
==== e(   7) =   -43.25578 eV ==== 
     psi = 0.332*[#  15]+0.332*[#  16]+0.332*[#  17]
    |psi|^2 = 1.000
==== e(   8) =   -43.21922 eV ==== 
     psi = 0.332*[#  15]+0.332*[#  16]+0.332*[#  17]
    |psi|^2 = 1.000
==== e(   9) =    -5.68426 eV ==== 
     psi = 0.352*[#  27]+0.352*[#  31]+0.036*[#  11]+0.036*[#  12]+0.036*[#  13]
          +0.036*[#  24]+0.036*[#  25]+0.036*[#  26]+0.033*[#  10]+0.032*[#  23]
          +0.002*[#   5]+0.002*[#   8]+0.002*[#   1]+0.002*[#  14]+0.002*[#  18]
          +0.002*[#  21]
    |psi|^2 = 1.000
==== e(  10) =    -5.14264 eV ==== 
     psi = 0.413*[#  27]+0.413*[#  31]+0.024*[#  11]+0.024*[#  12]+0.024*[#  13]
          +0.023*[#  24]+0.023*[#  25]+0.023*[#  26]+0.009*[#   5]+0.009*[#   8]
          +0.007*[#  18]+0.007*[#  21]
    |psi|^2 = 0.999
==== e(  11) =     6.83379 eV ==== 
     psi = 0.102*[#  28]+0.102*[#  29]+0.102*[#  30]+0.102*[#  32]+0.102*[#  33]
          +0.102*[#  34]+0.085*[#  23]+0.045*[#   5]+0.045*[#   8]+0.028*[#  10]
          +0.020*[#   6]+0.020*[#   7]+0.020*[#   9]+0.013*[#  11]+0.013*[#  12]
          +0.013*[#  13]+0.013*[#  24]+0.013*[#  25]+0.013*[#  26]+0.011*[#  19]
          +0.011*[#  20]+0.011*[#  22]+0.002*[#  14]+0.002*[#  27]+0.002*[#  31]
          +0.002*[#  18]+0.002*[#  21]
    |psi|^2 = 0.998
==== e(  12) =     6.97048 eV ==== 
     psi = 0.102*[#  28]+0.102*[#  29]+0.102*[#  30]+0.102*[#  32]+0.102*[#  33]
          +0.102*[#  34]+0.092*[#  10]+0.023*[#  18]+0.023*[#  21]+0.021*[#   6]
          +0.021*[#   7]+0.021*[#   9]+0.020*[#  27]+0.020*[#  31]+0.018*[#  24]
          +0.018*[#  25]+0.018*[#  26]+0.018*[#   5]+0.018*[#   8]+0.017*[#  23]
          +0.006*[#  11]+0.006*[#  12]+0.006*[#  13]+0.004*[#  19]+0.004*[#  20]
          +0.004*[#  22]+0.003*[#   1]+0.001*[#  14]
    |psi|^2 = 0.998
==== e(  13) =     7.41082 eV ==== 
     psi = 0.107*[#  28]+0.107*[#  29]+0.107*[#  30]+0.107*[#  32]+0.107*[#  33]
          +0.107*[#  34]+0.047*[#  11]+0.047*[#  12]+0.047*[#  13]+0.036*[#  24]
          +0.036*[#  25]+0.036*[#  26]+0.021*[#   6]+0.021*[#   7]+0.021*[#   9]
          +0.012*[#  19]+0.012*[#  20]+0.012*[#  22]
    |psi|^2 = 1.000
==== e(  14) =     8.23597 eV ==== 
     psi = 0.169*[#   5]+0.169*[#   8]+0.097*[#  28]+0.097*[#  29]+0.097*[#  30]
          +0.097*[#  32]+0.097*[#  33]+0.097*[#  34]+0.020*[#  18]+0.020*[#  21]
          +0.009*[#  24]+0.009*[#  25]+0.009*[#  26]+0.003*[#  11]+0.003*[#  12]
          +0.003*[#  13]
    |psi|^2 = 0.999
==== e(  15) =     8.70030 eV ==== 
     psi = 0.106*[#  28]+0.106*[#  29]+0.106*[#  30]+0.106*[#  32]+0.106*[#  33]
          +0.106*[#  34]+0.062*[#   5]+0.062*[#   8]+0.027*[#  18]+0.027*[#  21]
          +0.025*[#   6]+0.025*[#   7]+0.025*[#   9]+0.017*[#  23]+0.016*[#  19]
          +0.016*[#  20]+0.016*[#  22]+0.009*[#  11]+0.009*[#  12]+0.009*[#  13]
          +0.005*[#  24]+0.005*[#  25]+0.005*[#  26]+0.002*[#  10]+0.001*[#  27]
          +0.001*[#  31]
    |psi|^2 = 0.997
==== e(  16) =     9.10398 eV ==== 
     psi = 0.118*[#  28]+0.118*[#  29]+0.118*[#  30]+0.118*[#  32]+0.118*[#  33]
          +0.118*[#  34]+0.052*[#  18]+0.052*[#  21]+0.028*[#   6]+0.028*[#   7]
          +0.028*[#   9]+0.014*[#   5]+0.014*[#   8]+0.013*[#  11]+0.013*[#  12]
          +0.013*[#  13]+0.008*[#  19]+0.008*[#  20]+0.008*[#  22]+0.002*[#  24]
          +0.002*[#  25]+0.002*[#  26]
    |psi|^2 = 0.998
==== e(  17) =    10.82277 eV ==== 
     psi = 0.272*[#   6]+0.272*[#   7]+0.272*[#   9]+0.042*[#   5]+0.042*[#   8]
          +0.010*[#  28]+0.010*[#  29]+0.010*[#  30]+0.010*[#  32]+0.010*[#  33]
          +0.010*[#  34]+0.007*[#  10]+0.007*[#  19]+0.007*[#  20]+0.007*[#  22]
          +0.004*[#  27]+0.004*[#  31]
    |psi|^2 = 0.995
==== e(  18) =    11.36952 eV ==== 
     psi = 0.282*[#   6]+0.282*[#   7]+0.282*[#   9]+0.039*[#   5]+0.039*[#   8]
          +0.014*[#  18]+0.014*[#  21]+0.007*[#  28]+0.007*[#  29]+0.007*[#  30]
          +0.007*[#  32]+0.007*[#  33]+0.007*[#  34]
    |psi|^2 = 0.999
==== e(  19) =    11.68329 eV ==== 
     psi = 0.279*[#   6]+0.279*[#   7]+0.279*[#   9]+0.020*[#  28]+0.020*[#  29]
          +0.020*[#  30]+0.020*[#  32]+0.020*[#  33]+0.020*[#  34]+0.008*[#   5]
          +0.008*[#   8]+0.004*[#  23]+0.004*[#  10]+0.003*[#  27]+0.003*[#  31]
          +0.002*[#  24]+0.002*[#  25]+0.002*[#  26]+0.002*[#  19]+0.002*[#  20]
          +0.002*[#  22]
    |psi|^2 = 0.999
==== e(  20) =    12.27613 eV ==== 
     psi = 0.298*[#   5]+0.298*[#   8]+0.037*[#  28]+0.037*[#  29]+0.037*[#  30]
          +0.037*[#  32]+0.037*[#  33]+0.037*[#  34]+0.025*[#  18]+0.025*[#  21]
          +0.020*[#  27]+0.020*[#  31]+0.015*[#  23]+0.014*[#   6]+0.014*[#   7]
          +0.014*[#   9]+0.005*[#  19]+0.005*[#  20]+0.005*[#  22]+0.004*[#  24]
          +0.004*[#  25]+0.004*[#  26]+0.003*[#  10]+0.001*[#  11]+0.001*[#  12]
          +0.001*[#  13]
    |psi|^2 = 0.997
==== e(  21) =    12.44077 eV ==== 
     psi = 0.257*[#   5]+0.257*[#   8]+0.050*[#  28]+0.050*[#  29]+0.050*[#  30]
          +0.050*[#  32]+0.050*[#  33]+0.050*[#  34]+0.025*[#  18]+0.025*[#  21]
          +0.021*[#   6]+0.021*[#   7]+0.021*[#   9]+0.015*[#  19]+0.015*[#  20]
          +0.015*[#  22]+0.008*[#  24]+0.008*[#  25]+0.008*[#  26]
    |psi|^2 = 0.998
==== e(  22) =    12.95920 eV ==== 
     psi = 0.282*[#  19]+0.282*[#  20]+0.282*[#  22]+0.012*[#  28]+0.012*[#  29]
          +0.012*[#  30]+0.012*[#  32]+0.012*[#  33]+0.012*[#  34]+0.009*[#  23]
          +0.008*[#  18]+0.008*[#  21]+0.007*[#   6]+0.007*[#   7]+0.007*[#   9]
          +0.004*[#   5]+0.004*[#   8]+0.003*[#  11]+0.003*[#  12]+0.003*[#  13]
          +0.002*[#  27]+0.002*[#  31]
    |psi|^2 = 0.986
==== e(  23) =    13.75881 eV ==== 
     psi = 0.307*[#  19]+0.307*[#  20]+0.307*[#  22]+0.010*[#  28]+0.010*[#  29]
          +0.010*[#  30]+0.010*[#  32]+0.010*[#  33]+0.010*[#  34]+0.007*[#   5]
          +0.007*[#   8]+0.001*[#  18]+0.001*[#  21]
    |psi|^2 = 0.997
==== e(  24) =    13.86493 eV ==== 
     psi = 0.303*[#  19]+0.303*[#  20]+0.303*[#  22]+0.013*[#  28]+0.013*[#  29]
          +0.013*[#  30]+0.013*[#  32]+0.013*[#  33]+0.013*[#  34]+0.002*[#  10]
          +0.001*[#  18]+0.001*[#  21]+0.001*[#  27]+0.001*[#  31]
    |psi|^2 = 0.997
==== e(  25) =    14.83051 eV ==== 
     psi = 0.379*[#  18]+0.379*[#  21]+0.032*[#  10]+0.029*[#  27]+0.029*[#  31]
          +0.017*[#  28]+0.017*[#  29]+0.017*[#  30]+0.017*[#  32]+0.017*[#  33]
          +0.017*[#  34]+0.007*[#  11]+0.007*[#  12]+0.007*[#  13]+0.005*[#  19]
          +0.005*[#  20]+0.005*[#  22]+0.003*[#  24]+0.003*[#  25]+0.003*[#  26]
          +0.002*[#   5]+0.002*[#   8]+0.001*[#  23]
    |psi|^2 = 0.998
==== e(  26) =    15.10813 eV ==== 
     psi = 0.387*[#  18]+0.387*[#  21]+0.030*[#  28]+0.030*[#  29]+0.030*[#  30]
          +0.030*[#  32]+0.030*[#  33]+0.030*[#  34]+0.012*[#   5]+0.012*[#   8]
          +0.005*[#  11]+0.005*[#  12]+0.005*[#  13]
    |psi|^2 = 0.998
==== e(  27) =    18.81124 eV ==== 
     psi = 0.126*[#  10]+0.099*[#  23]+0.078*[#  27]+0.078*[#  31]+0.047*[#  28]
          +0.047*[#  29]+0.047*[#  30]+0.047*[#  32]+0.047*[#  33]+0.047*[#  34]
          +0.046*[#  24]+0.046*[#  25]+0.046*[#  26]+0.045*[#  11]+0.045*[#  12]
          +0.045*[#  13]+0.020*[#  18]+0.020*[#  21]+0.005*[#   5]+0.005*[#   8]
          +0.002*[#  14]+0.001*[#   1]
    |psi|^2 = 0.991
==== e(  28) =    22.01080 eV ==== 
     psi = 0.187*[#  10]+0.171*[#  23]+0.086*[#  11]+0.086*[#  12]+0.086*[#  13]
          +0.075*[#  24]+0.075*[#  25]+0.075*[#  26]+0.041*[#  27]+0.041*[#  31]
          +0.003*[#  19]+0.003*[#  20]+0.003*[#  22]+0.003*[#   1]+0.002*[#   6]
          +0.002*[#   7]+0.002*[#   9]+0.002*[#  14]
    |psi|^2 = 0.944
==== e(  29) =    22.33962 eV ==== 
     psi = 0.245*[#  10]+0.218*[#  23]+0.042*[#  24]+0.042*[#  25]+0.042*[#  26]
          +0.037*[#  28]+0.037*[#  29]+0.037*[#  30]+0.037*[#  32]+0.037*[#  33]
          +0.037*[#  34]+0.033*[#  11]+0.033*[#  12]+0.033*[#  13]+0.013*[#  27]
          +0.013*[#  31]+0.003*[#  18]+0.003*[#  21]+0.003*[#  19]+0.003*[#  20]
          +0.003*[#  22]+0.002*[#   5]+0.002*[#   8]+0.001*[#   6]+0.001*[#   7]
          +0.001*[#   9]+0.001*[#   1]
    |psi|^2 = 0.959
==== e(  30) =    23.46018 eV ==== 
     psi = 0.123*[#  11]+0.123*[#  12]+0.123*[#  13]+0.111*[#  24]+0.111*[#  25]
          +0.111*[#  26]+0.037*[#  28]+0.037*[#  29]+0.037*[#  30]+0.037*[#  32]
          +0.037*[#  33]+0.037*[#  34]+0.004*[#  19]+0.004*[#  20]+0.004*[#  22]
          +0.003*[#  23]+0.002*[#   6]+0.002*[#   7]+0.002*[#   9]
    |psi|^2 = 0.949
==== e(  31) =    24.82467 eV ==== 
     psi = 0.196*[#  23]+0.131*[#  10]+0.057*[#  24]+0.057*[#  25]+0.057*[#  26]
          +0.054*[#  11]+0.054*[#  12]+0.054*[#  13]+0.009*[#  28]+0.009*[#  29]
          +0.009*[#  30]+0.009*[#  32]+0.009*[#  33]+0.009*[#  34]+0.005*[#  14]
          +0.005*[#   1]+0.005*[#  19]+0.005*[#  20]+0.005*[#  22]+0.005*[#  27]
          +0.005*[#  31]+0.001*[#   6]+0.001*[#   7]+0.001*[#   9]
    |psi|^2 = 0.752
==== e(  32) =    26.55449 eV ==== 
     psi = 0.103*[#  23]+0.100*[#  24]+0.100*[#  25]+0.100*[#  26]+0.096*[#  11]
          +0.096*[#  12]+0.096*[#  13]+0.083*[#  10]+0.005*[#  14]+0.004*[#   1]
          +0.002*[#  27]+0.002*[#  31]+0.002*[#  19]+0.002*[#  20]+0.002*[#  22]
          
    |psi|^2 = 0.805
==== e(  33) =    28.28624 eV ==== 
     psi = 0.252*[#  11]+0.252*[#  12]+0.252*[#  13]+0.051*[#  24]+0.051*[#  25]
          +0.051*[#  26]+0.010*[#  28]+0.010*[#  29]+0.010*[#  30]+0.010*[#  32]
          +0.010*[#  33]+0.010*[#  34]
    |psi|^2 = 0.976
==== e(  34) =    28.85827 eV ==== 
     psi = 0.239*[#  24]+0.239*[#  25]+0.239*[#  26]+0.040*[#  11]+0.040*[#  12]
          +0.040*[#  13]+0.008*[#  28]+0.008*[#  29]+0.008*[#  30]+0.008*[#  32]
          +0.008*[#  33]+0.008*[#  34]
    |psi|^2 = 0.893
==== e(  35) =    31.53016 eV ==== 
     psi = 0.052*[#  24]+0.052*[#  25]+0.052*[#  26]+0.045*[#  11]+0.045*[#  12]
          +0.045*[#  13]+0.004*[#  28]+0.004*[#  29]+0.004*[#  30]+0.004*[#  32]
          +0.004*[#  33]+0.004*[#  34]+0.003*[#  23]+0.002*[#  10]
    |psi|^2 = 0.322
==== e(  36) =    32.70561 eV ==== 
     psi = 0.010*[#  11]+0.010*[#  12]+0.010*[#  13]+0.009*[#  24]+0.009*[#  25]
          +0.009*[#  26]+0.006*[#  27]+0.006*[#  31]
    |psi|^2 = 0.077
==== e(  37) =    36.50560 eV ==== 
 
    |psi|^2 = 0.002
==== e(  38) =    37.71772 eV ==== 
     psi = 0.007*[#  23]+0.007*[#  24]+0.007*[#  25]+0.007*[#  26]+0.006*[#  11]
          +0.006*[#  12]+0.006*[#  13]+0.005*[#  10]
    |psi|^2 = 0.059
==== e(  39) =    38.59054 eV ==== 
 
    |psi|^2 = 0.006
==== e(  40) =    40.51177 eV ==== 
     psi = 0.006*[#  24]+0.006*[#  25]+0.006*[#  26]+0.006*[#  11]+0.006*[#  12]
          +0.006*[#  13]+0.002*[#  28]+0.002*[#  29]+0.002*[#  30]+0.002*[#  32]
          +0.002*[#  33]+0.002*[#  34]
    |psi|^2 = 0.049

 k =  -0.7439034119  0.2472994604  0.2472994604
==== e(   1) =   -82.89659 eV ==== 
     psi = 0.987*[#   1]+0.002*[#  10]+0.002*[#  24]+0.002*[#  25]+0.002*[#  26]
          
    |psi|^2 = 1.000
==== e(   2) =   -79.72595 eV ==== 
     psi = 0.987*[#  14]+0.002*[#  11]+0.002*[#  12]+0.002*[#  13]+0.002*[#  23]
          
    |psi|^2 = 1.000
==== e(   3) =   -46.33544 eV ==== 
     psi = 0.332*[#   2]+0.332*[#   3]+0.332*[#   4]
    |psi|^2 = 1.000
==== e(   4) =   -46.31481 eV ==== 
     psi = 0.332*[#   2]+0.332*[#   3]+0.332*[#   4]
    |psi|^2 = 1.000
==== e(   5) =   -46.24491 eV ==== 
     psi = 0.333*[#   2]+0.333*[#   3]+0.333*[#   4]
    |psi|^2 = 1.000
==== e(   6) =   -43.28296 eV ==== 
     psi = 0.332*[#  15]+0.332*[#  16]+0.332*[#  17]+0.001*[#  24]+0.001*[#  25]
          +0.001*[#  26]
    |psi|^2 = 1.000
==== e(   7) =   -43.25792 eV ==== 
     psi = 0.332*[#  15]+0.332*[#  16]+0.332*[#  17]
    |psi|^2 = 1.000
==== e(   8) =   -43.21790 eV ==== 
     psi = 0.333*[#  15]+0.333*[#  16]+0.333*[#  17]
    |psi|^2 = 1.000
==== e(   9) =    -5.24717 eV ==== 
     psi = 0.400*[#  27]+0.400*[#  31]+0.051*[#  24]+0.051*[#  25]+0.051*[#  26]
          +0.015*[#   5]+0.015*[#   8]+0.014*[#  10]
    |psi|^2 = 0.999
==== e(  10) =    -5.23267 eV ==== 
     psi = 0.402*[#  27]+0.402*[#  31]+0.051*[#  11]+0.051*[#  12]+0.051*[#  13]
          +0.014*[#  23]+0.013*[#  18]+0.013*[#  21]
    |psi|^2 = 0.999
==== e(  11) =     6.46136 eV ==== 
     psi = 0.100*[#  10]+0.099*[#  28]+0.099*[#  29]+0.099*[#  30]+0.099*[#  32]
          +0.099*[#  33]+0.099*[#  34]+0.055*[#  24]+0.055*[#  25]+0.055*[#  26]
          +0.036*[#   6]+0.036*[#   7]+0.036*[#   9]+0.011*[#   5]+0.011*[#   8]
          +0.004*[#  27]+0.004*[#  31]+0.003*[#   1]
    |psi|^2 = 1.000
==== e(  12) =     6.64188 eV ==== 
     psi = 0.106*[#  28]+0.106*[#  29]+0.106*[#  30]+0.106*[#  32]+0.106*[#  33]
          +0.106*[#  34]+0.098*[#  23]+0.059*[#  11]+0.059*[#  12]+0.059*[#  13]
          +0.021*[#  19]+0.021*[#  20]+0.021*[#  22]+0.005*[#  18]+0.005*[#  21]
          +0.005*[#  27]+0.005*[#  31]+0.004*[#  14]
    |psi|^2 = 0.999
==== e(  13) =     7.70218 eV ==== 
     psi = 0.104*[#   5]+0.104*[#   8]+0.095*[#  28]+0.095*[#  29]+0.095*[#  30]
          +0.095*[#  32]+0.095*[#  33]+0.095*[#  34]+0.038*[#   6]+0.038*[#   7]
          +0.038*[#   9]+0.028*[#  24]+0.028*[#  25]+0.028*[#  26]+0.021*[#  10]
          
    |psi|^2 = 0.998
==== e(  14) =     8.15842 eV ==== 
     psi = 0.118*[#  28]+0.118*[#  29]+0.118*[#  30]+0.118*[#  32]+0.118*[#  33]
          +0.118*[#  34]+0.053*[#  18]+0.053*[#  21]+0.032*[#  11]+0.032*[#  12]
          +0.032*[#  13]+0.025*[#  23]+0.020*[#  19]+0.020*[#  20]+0.020*[#  22]
          +0.001*[#  27]+0.001*[#  31]
    |psi|^2 = 0.996
==== e(  15) =     8.26705 eV ==== 
     psi = 0.179*[#   5]+0.179*[#   8]+0.094*[#  28]+0.094*[#  29]+0.094*[#  30]
          +0.094*[#  32]+0.094*[#  33]+0.094*[#  34]+0.013*[#  24]+0.013*[#  25]
          +0.013*[#  26]+0.012*[#   6]+0.012*[#   7]+0.012*[#   9]
    |psi|^2 = 0.999
==== e(  16) =     8.88694 eV ==== 
     psi = 0.126*[#  28]+0.126*[#  29]+0.126*[#  30]+0.126*[#  32]+0.126*[#  33]
          +0.126*[#  34]+0.079*[#  18]+0.079*[#  21]+0.019*[#  11]+0.019*[#  12]
          +0.019*[#  13]+0.008*[#  19]+0.008*[#  20]+0.008*[#  22]
    |psi|^2 = 0.998
==== e(  17) =    10.77821 eV ==== 
     psi = 0.271*[#   6]+0.271*[#   7]+0.271*[#   9]+0.053*[#   5]+0.053*[#   8]
          +0.009*[#  28]+0.009*[#  29]+0.009*[#  30]+0.009*[#  32]+0.009*[#  33]
          +0.009*[#  34]+0.006*[#  10]+0.004*[#  27]+0.004*[#  31]
    |psi|^2 = 0.995
==== e(  18) =    11.37651 eV ==== 
     psi = 0.296*[#   6]+0.296*[#   7]+0.296*[#   9]+0.055*[#   5]+0.055*[#   8]
          
    |psi|^2 = 1.000
==== e(  19) =    11.70317 eV ==== 
     psi = 0.293*[#   6]+0.293*[#   7]+0.293*[#   9]+0.016*[#  28]+0.016*[#  29]
          +0.016*[#  30]+0.016*[#  32]+0.016*[#  33]+0.016*[#  34]+0.014*[#  10]
          +0.005*[#   5]+0.005*[#   8]
    |psi|^2 = 1.000
==== e(  20) =    12.50098 eV ==== 
     psi = 0.306*[#   5]+0.306*[#   8]+0.039*[#  28]+0.039*[#  29]+0.039*[#  30]
          +0.039*[#  32]+0.039*[#  33]+0.039*[#  34]+0.024*[#  27]+0.024*[#  31]
          +0.021*[#   6]+0.021*[#   7]+0.021*[#   9]+0.013*[#  24]+0.013*[#  25]
          +0.013*[#  26]+0.002*[#  10]
    |psi|^2 = 0.998
==== e(  21) =    12.68651 eV ==== 
     psi = 0.265*[#   5]+0.265*[#   8]+0.060*[#  28]+0.060*[#  29]+0.060*[#  30]
          +0.060*[#  32]+0.060*[#  33]+0.060*[#  34]+0.025*[#   6]+0.025*[#   7]
          +0.025*[#   9]+0.011*[#  24]+0.011*[#  25]+0.011*[#  26]
    |psi|^2 = 0.999
==== e(  22) =    12.79758 eV ==== 
     psi = 0.288*[#  19]+0.288*[#  20]+0.288*[#  22]+0.015*[#  18]+0.015*[#  21]
          +0.012*[#  28]+0.012*[#  29]+0.012*[#  30]+0.012*[#  32]+0.012*[#  33]
          +0.012*[#  34]+0.005*[#  23]+0.003*[#  11]+0.003*[#  12]+0.003*[#  13]
          +0.003*[#  27]+0.003*[#  31]
    |psi|^2 = 0.984
==== e(  23) =    13.83760 eV ==== 
     psi = 0.319*[#  19]+0.319*[#  20]+0.319*[#  22]+0.017*[#  18]+0.017*[#  21]
          +0.001*[#  28]+0.001*[#  29]+0.001*[#  30]+0.001*[#  32]+0.001*[#  33]
          +0.001*[#  34]
    |psi|^2 = 0.999
==== e(  24) =    13.97981 eV ==== 
     psi = 0.310*[#  19]+0.310*[#  20]+0.310*[#  22]+0.009*[#  28]+0.009*[#  29]
          +0.009*[#  30]+0.009*[#  32]+0.009*[#  33]+0.009*[#  34]+0.005*[#  18]
          +0.005*[#  21]+0.004*[#  23]
    |psi|^2 = 0.998
==== e(  25) =    15.03727 eV ==== 
     psi = 0.402*[#  18]+0.402*[#  21]+0.026*[#  28]+0.026*[#  29]+0.026*[#  30]
          +0.026*[#  32]+0.026*[#  33]+0.026*[#  34]+0.007*[#  11]+0.007*[#  12]
          +0.007*[#  13]+0.006*[#  19]+0.006*[#  20]+0.006*[#  22]
    |psi|^2 = 0.998
==== e(  26) =    15.03824 eV ==== 
     psi = 0.398*[#  18]+0.398*[#  21]+0.027*[#  27]+0.027*[#  31]+0.015*[#  28]
          +0.015*[#  29]+0.015*[#  30]+0.015*[#  32]+0.015*[#  33]+0.015*[#  34]
          +0.011*[#  11]+0.011*[#  12]+0.011*[#  13]+0.008*[#  19]+0.008*[#  20]
          +0.008*[#  22]
    |psi|^2 = 0.999
==== e(  27) =    20.48922 eV ==== 
     psi = 0.383*[#  10]+0.104*[#  24]+0.104*[#  25]+0.104*[#  26]+0.046*[#  27]
          +0.046*[#  31]+0.029*[#  28]+0.029*[#  29]+0.029*[#  30]+0.029*[#  32]
          +0.029*[#  33]+0.029*[#  34]+0.003*[#   5]+0.003*[#   8]+0.001*[#   6]
          +0.001*[#   7]+0.001*[#   9]
    |psi|^2 = 0.975
==== e(  28) =    20.76777 eV ==== 
     psi = 0.291*[#  23]+0.126*[#  11]+0.126*[#  12]+0.126*[#  13]+0.047*[#  27]
          +0.047*[#  31]+0.030*[#  28]+0.030*[#  29]+0.030*[#  30]+0.030*[#  32]
          +0.030*[#  33]+0.030*[#  34]+0.010*[#  18]+0.010*[#  21]+0.004*[#  19]
          +0.004*[#  20]+0.004*[#  22]
    |psi|^2 = 0.973
==== e(  29) =    22.82768 eV ==== 
     psi = 0.426*[#  10]+0.107*[#  24]+0.107*[#  25]+0.107*[#  26]+0.022*[#  28]
          +0.022*[#  29]+0.022*[#  30]+0.022*[#  32]+0.022*[#  33]+0.022*[#  34]
          +0.012*[#  27]+0.012*[#  31]+0.007*[#   1]+0.002*[#   6]+0.002*[#   7]
          +0.002*[#   9]+0.001*[#   5]+0.001*[#   8]
    |psi|^2 = 0.919
==== e(  30) =    23.11820 eV ==== 
     psi = 0.533*[#  23]+0.083*[#  11]+0.083*[#  12]+0.083*[#  13]+0.021*[#  28]
          +0.021*[#  29]+0.021*[#  30]+0.021*[#  32]+0.021*[#  33]+0.021*[#  34]
          +0.007*[#  14]+0.007*[#  27]+0.007*[#  31]+0.004*[#  19]+0.004*[#  20]
          +0.004*[#  22]+0.002*[#  18]+0.002*[#  21]
    |psi|^2 = 0.940
==== e(  31) =    24.60293 eV ==== 
     psi = 0.239*[#  24]+0.239*[#  25]+0.239*[#  26]+0.019*[#  10]+0.018*[#  28]
          +0.018*[#  29]+0.018*[#  30]+0.018*[#  32]+0.018*[#  33]+0.018*[#  34]
          +0.004*[#   6]+0.004*[#   7]+0.004*[#   9]+0.002*[#   1]
    |psi|^2 = 0.858
==== e(  32) =    24.67699 eV ==== 
     psi = 0.244*[#  11]+0.244*[#  12]+0.244*[#  13]+0.017*[#  28]+0.017*[#  29]
          +0.017*[#  30]+0.017*[#  32]+0.017*[#  33]+0.017*[#  34]+0.012*[#  23]
          +0.010*[#  19]+0.010*[#  20]+0.010*[#  22]+0.001*[#  14]
    |psi|^2 = 0.884
==== e(  33) =    28.15386 eV ==== 
     psi = 0.292*[#  11]+0.292*[#  12]+0.292*[#  13]+0.012*[#  28]+0.012*[#  29]
          +0.012*[#  30]+0.012*[#  32]+0.012*[#  33]+0.012*[#  34]
    |psi|^2 = 0.952
==== e(  34) =    28.53760 eV ==== 
     psi = 0.291*[#  24]+0.291*[#  25]+0.291*[#  26]+0.011*[#  28]+0.011*[#  29]
          +0.011*[#  30]+0.011*[#  32]+0.011*[#  33]+0.011*[#  34]
    |psi|^2 = 0.943
==== e(  35) =    31.84288 eV ==== 
     psi = 0.051*[#  24]+0.051*[#  25]+0.051*[#  26]+0.005*[#  27]+0.005*[#  31]
          +0.003*[#  10]+0.003*[#  28]+0.003*[#  29]+0.003*[#  30]+0.003*[#  32]
          +0.003*[#  33]+0.003*[#  34]
    |psi|^2 = 0.189
==== e(  36) =    31.94313 eV ==== 
     psi = 0.042*[#  11]+0.042*[#  12]+0.042*[#  13]+0.004*[#  23]+0.004*[#  27]
          +0.004*[#  31]+0.003*[#  28]+0.003*[#  29]+0.003*[#  30]+0.003*[#  32]
          +0.003*[#  33]+0.003*[#  34]+0.001*[#  19]+0.001*[#  20]+0.001*[#  22]
          
    |psi|^2 = 0.162
==== e(  37) =    38.67231 eV ==== 
     psi = 0.007*[#  24]+0.007*[#  25]+0.007*[#  26]
    |psi|^2 = 0.024
==== e(  38) =    38.90062 eV ==== 
     psi = 0.007*[#  11]+0.007*[#  12]+0.007*[#  13]
    |psi|^2 = 0.025
==== e(  39) =    40.61056 eV ==== 
     psi = 0.005*[#  11]+0.005*[#  12]+0.005*[#  13]+0.002*[#  27]+0.002*[#  31]
          
    |psi|^2 = 0.023
==== e(  40) =    40.67677 eV ==== 
     psi = 0.006*[#  24]+0.006*[#  25]+0.006*[#  26]+0.001*[#  27]+0.001*[#  31]
          
    |psi|^2 = 0.024

 k =   0.1655346505  0.1655346505 -0.1648663069
==== e(   1) =   -82.89830 eV ==== 
     psi = 0.975*[#   1]+0.005*[#  11]+0.005*[#  12]+0.005*[#  13]+0.002*[#  24]
          +0.002*[#  25]+0.002*[#  26]
    |psi|^2 = 1.000
==== e(   2) =   -79.72796 eV ==== 
     psi = 0.975*[#  14]+0.005*[#  24]+0.005*[#  25]+0.005*[#  26]+0.002*[#  11]
          +0.002*[#  12]+0.002*[#  13]
    |psi|^2 = 1.000
==== e(   3) =   -46.31461 eV ==== 
     psi = 0.332*[#   2]+0.332*[#   3]+0.332*[#   4]
    |psi|^2 = 1.000
==== e(   4) =   -46.30915 eV ==== 
     psi = 0.332*[#   2]+0.332*[#   3]+0.332*[#   4]+0.001*[#  11]+0.001*[#  12]
          +0.001*[#  13]
    |psi|^2 = 1.000
==== e(   5) =   -46.24803 eV ==== 
     psi = 0.331*[#   2]+0.331*[#   3]+0.331*[#   4]+0.002*[#  24]+0.002*[#  25]
          +0.002*[#  26]
    |psi|^2 = 1.000
==== e(   6) =   -43.25783 eV ==== 
     psi = 0.332*[#  15]+0.332*[#  16]+0.332*[#  17]
    |psi|^2 = 1.000
==== e(   7) =   -43.25135 eV ==== 
     psi = 0.332*[#  15]+0.332*[#  16]+0.332*[#  17]+0.001*[#  24]+0.001*[#  25]
          +0.001*[#  26]
    |psi|^2 = 1.000
==== e(   8) =   -43.22149 eV ==== 
     psi = 0.331*[#  15]+0.331*[#  16]+0.331*[#  17]+0.002*[#  11]+0.002*[#  12]
          +0.002*[#  13]
    |psi|^2 = 1.000
==== e(   9) =    -6.23164 eV ==== 
     psi = 0.323*[#  27]+0.323*[#  31]+0.092*[#  10]+0.089*[#  23]+0.027*[#  11]
          +0.027*[#  12]+0.027*[#  13]+0.027*[#  24]+0.027*[#  25]+0.027*[#  26]
          +0.004*[#  14]+0.004*[#   1]
    |psi|^2 = 1.000
==== e(  10) =    -5.23074 eV ==== 
     psi = 0.386*[#  27]+0.386*[#  31]+0.034*[#  11]+0.034*[#  12]+0.034*[#  13]
          +0.034*[#  24]+0.034*[#  25]+0.034*[#  26]+0.004*[#   5]+0.004*[#   8]
          +0.003*[#  18]+0.003*[#  21]+0.003*[#  10]+0.003*[#  23]
    |psi|^2 = 0.999
==== e(  11) =     6.06180 eV ==== 
     psi = 0.102*[#  28]+0.102*[#  29]+0.102*[#  30]+0.102*[#  32]+0.102*[#  33]
          +0.102*[#  34]+0.086*[#  10]+0.084*[#  23]+0.027*[#   6]+0.027*[#   7]
          +0.027*[#   9]+0.014*[#  11]+0.014*[#  12]+0.014*[#  13]+0.014*[#  19]
          +0.014*[#  20]+0.014*[#  22]+0.014*[#  24]+0.014*[#  25]+0.014*[#  26]
          +0.002*[#  27]+0.002*[#  31]+0.002*[#  14]+0.002*[#   1]
    |psi|^2 = 0.999
==== e(  12) =     7.86745 eV ==== 
     psi = 0.124*[#   5]+0.124*[#   8]+0.095*[#  28]+0.095*[#  29]+0.095*[#  30]
          +0.095*[#  32]+0.095*[#  33]+0.095*[#  34]+0.025*[#  18]+0.025*[#  21]
          +0.018*[#   6]+0.018*[#   7]+0.018*[#   9]+0.010*[#  24]+0.010*[#  25]
          +0.010*[#  26]+0.008*[#  11]+0.008*[#  12]+0.008*[#  13]+0.004*[#  19]
          +0.004*[#  20]+0.004*[#  22]+0.004*[#  10]+0.001*[#  23]
    |psi|^2 = 0.998
==== e(  13) =     8.21550 eV ==== 
     psi = 0.162*[#   5]+0.162*[#   8]+0.094*[#  28]+0.094*[#  29]+0.094*[#  30]
          +0.094*[#  32]+0.094*[#  33]+0.094*[#  34]+0.025*[#  18]+0.025*[#  21]
          +0.009*[#   6]+0.009*[#   7]+0.009*[#   9]+0.004*[#  19]+0.004*[#  20]
          +0.004*[#  22]+0.004*[#  24]+0.004*[#  25]+0.004*[#  26]+0.003*[#  11]
          +0.003*[#  12]+0.003*[#  13]
    |psi|^2 = 0.998
==== e(  14) =     8.67859 eV ==== 
     psi = 0.114*[#  28]+0.114*[#  29]+0.114*[#  30]+0.114*[#  32]+0.114*[#  33]
          +0.114*[#  34]+0.061*[#  10]+0.057*[#  23]+0.033*[#   6]+0.033*[#   7]
          +0.033*[#   9]+0.024*[#  27]+0.024*[#  31]+0.014*[#  19]+0.014*[#  20]
          +0.014*[#  22]+0.002*[#   5]+0.002*[#   8]
    |psi|^2 = 0.997
==== e(  15) =     9.52195 eV ==== 
     psi = 0.111*[#  28]+0.111*[#  29]+0.111*[#  30]+0.111*[#  32]+0.111*[#  33]
          +0.111*[#  34]+0.055*[#  18]+0.055*[#  21]+0.053*[#   5]+0.053*[#   8]
          +0.032*[#   6]+0.032*[#   7]+0.032*[#   9]+0.004*[#  11]+0.004*[#  12]
          +0.004*[#  13]+0.002*[#  19]+0.002*[#  20]+0.002*[#  22]
    |psi|^2 = 0.996
==== e(  16) =     9.56437 eV ==== 
     psi = 0.115*[#  28]+0.115*[#  29]+0.115*[#  30]+0.115*[#  32]+0.115*[#  33]
          +0.115*[#  34]+0.064*[#   5]+0.064*[#   8]+0.056*[#  18]+0.056*[#  21]
          +0.009*[#   6]+0.009*[#   7]+0.009*[#   9]+0.007*[#  19]+0.007*[#  20]
          +0.007*[#  22]+0.005*[#  11]+0.005*[#  12]+0.005*[#  13]
    |psi|^2 = 0.996
==== e(  17) =    10.98926 eV ==== 
     psi = 0.277*[#   6]+0.277*[#   7]+0.277*[#   9]+0.042*[#   5]+0.042*[#   8]
          +0.009*[#  10]+0.009*[#  28]+0.009*[#  29]+0.009*[#  30]+0.009*[#  32]
          +0.009*[#  33]+0.009*[#  34]+0.003*[#  19]+0.003*[#  20]+0.003*[#  22]
          +0.004*[#  27]+0.004*[#  31]+0.001*[#  24]+0.001*[#  25]+0.001*[#  26]
          
    |psi|^2 = 0.997
==== e(  18) =    11.15673 eV ==== 
     psi = 0.282*[#   6]+0.282*[#   7]+0.282*[#   9]+0.018*[#  18]+0.018*[#  21]
          +0.014*[#  28]+0.014*[#  29]+0.014*[#  30]+0.014*[#  32]+0.014*[#  33]
          +0.014*[#  34]+0.009*[#  19]+0.009*[#  20]+0.009*[#  22]+0.001*[#   5]
          +0.001*[#   8]
    |psi|^2 = 0.997
==== e(  19) =    11.30241 eV ==== 
     psi = 0.271*[#   6]+0.271*[#   7]+0.271*[#   9]+0.018*[#  28]+0.018*[#  29]
          +0.018*[#  30]+0.018*[#  32]+0.018*[#  33]+0.018*[#  34]+0.013*[#  23]
          +0.011*[#  19]+0.011*[#  20]+0.011*[#  22]+0.005*[#  18]+0.005*[#  21]
          +0.004*[#  27]+0.004*[#  31]+0.001*[#   5]+0.001*[#   8]+0.001*[#  24]
          +0.001*[#  25]+0.001*[#  26]
    |psi|^2 = 0.997
==== e(  20) =    12.37215 eV ==== 
     psi = 0.256*[#   5]+0.256*[#   8]+0.054*[#  28]+0.054*[#  29]+0.054*[#  30]
          +0.054*[#  32]+0.054*[#  33]+0.054*[#  34]+0.034*[#  19]+0.034*[#  20]
          +0.034*[#  22]+0.017*[#  18]+0.017*[#  21]+0.005*[#  24]+0.005*[#  25]
          +0.005*[#  26]+0.003*[#   6]+0.003*[#   7]+0.003*[#   9]
    |psi|^2 = 0.997
==== e(  21) =    12.44445 eV ==== 
     psi = 0.241*[#   5]+0.241*[#   8]+0.062*[#  28]+0.062*[#  29]+0.062*[#  30]
          +0.062*[#  32]+0.062*[#  33]+0.062*[#  34]+0.015*[#  19]+0.015*[#  20]
          +0.015*[#  22]+0.013*[#   6]+0.013*[#   7]+0.013*[#   9]+0.013*[#  18]
          +0.013*[#  21]+0.007*[#  24]+0.007*[#  25]+0.007*[#  26]+0.005*[#  27]
          +0.005*[#  31]+0.002*[#  10]
    |psi|^2 = 0.997
==== e(  22) =    13.14286 eV ==== 
     psi = 0.288*[#  19]+0.288*[#  20]+0.288*[#  22]+0.023*[#  18]+0.023*[#  21]
          +0.008*[#  28]+0.008*[#  29]+0.008*[#  30]+0.008*[#  32]+0.008*[#  33]
          +0.008*[#  34]+0.004*[#  23]+0.003*[#   5]+0.003*[#   8]+0.003*[#  11]
          +0.003*[#  12]+0.003*[#  13]+0.003*[#  27]+0.003*[#  31]+0.002*[#   6]
          +0.002*[#   7]+0.002*[#   9]
    |psi|^2 = 0.991
==== e(  23) =    13.52664 eV ==== 
     psi = 0.279*[#  19]+0.279*[#  20]+0.279*[#  22]+0.015*[#  18]+0.015*[#  21]
          +0.014*[#  28]+0.014*[#  29]+0.014*[#  30]+0.014*[#  32]+0.014*[#  33]
          +0.014*[#  34]+0.011*[#   5]+0.011*[#   8]+0.006*[#   6]+0.006*[#   7]
          +0.006*[#   9]
    |psi|^2 = 0.995
==== e(  24) =    13.60246 eV ==== 
     psi = 0.289*[#  19]+0.289*[#  20]+0.289*[#  22]+0.013*[#  28]+0.013*[#  29]
          +0.013*[#  30]+0.013*[#  32]+0.013*[#  33]+0.013*[#  34]+0.010*[#   6]
          +0.010*[#   7]+0.010*[#   9]+0.006*[#  10]+0.002*[#   5]+0.002*[#   8]
          +0.002*[#  27]+0.002*[#  31]+0.001*[#  18]+0.001*[#  21]
    |psi|^2 = 0.994
==== e(  25) =    15.01242 eV ==== 
     psi = 0.364*[#  18]+0.364*[#  21]+0.026*[#  28]+0.026*[#  29]+0.026*[#  30]
          +0.026*[#  32]+0.026*[#  33]+0.026*[#  34]+0.015*[#  27]+0.015*[#  31]
          +0.012*[#   5]+0.012*[#   8]+0.009*[#  11]+0.009*[#  12]+0.009*[#  13]
          +0.006*[#  19]+0.006*[#  20]+0.006*[#  22]+0.003*[#  24]+0.003*[#  25]
          +0.003*[#  26]
    |psi|^2 = 0.997
==== e(  26) =    15.08595 eV ==== 
     psi = 0.367*[#  18]+0.367*[#  21]+0.035*[#  28]+0.035*[#  29]+0.035*[#  30]
          +0.035*[#  32]+0.035*[#  33]+0.035*[#  34]+0.015*[#   5]+0.015*[#   8]
          +0.005*[#  11]+0.005*[#  12]+0.005*[#  13]+0.002*[#  19]+0.002*[#  20]
          +0.002*[#  22]
    |psi|^2 = 0.998
==== e(  27) =    16.18918 eV ==== 
     psi = 0.188*[#  10]+0.161*[#  23]+0.136*[#  27]+0.136*[#  31]+0.033*[#  24]
          +0.033*[#  25]+0.033*[#  26]+0.032*[#  11]+0.032*[#  12]+0.032*[#  13]
          +0.028*[#  28]+0.028*[#  29]+0.028*[#  30]+0.028*[#  32]+0.028*[#  33]
          +0.028*[#  34]+0.003*[#  14]+0.003*[#   1]+0.002*[#  19]+0.002*[#  20]
          +0.002*[#  22]
    |psi|^2 = 0.995
==== e(  28) =    19.94290 eV ==== 
     psi = 0.100*[#  11]+0.100*[#  12]+0.100*[#  13]+0.096*[#  24]+0.096*[#  25]
          +0.096*[#  26]+0.078*[#  27]+0.078*[#  31]+0.025*[#  23]+0.022*[#  10]
          +0.021*[#  28]+0.021*[#  29]+0.021*[#  30]+0.021*[#  32]+0.021*[#  33]
          +0.021*[#  34]+0.007*[#  18]+0.007*[#  21]+0.003*[#   5]+0.003*[#   8]
          +0.003*[#  19]+0.003*[#  20]+0.003*[#  22]+0.001*[#   6]+0.001*[#   7]
          +0.001*[#   9]
    |psi|^2 = 0.953
==== e(  29) =    22.91255 eV ==== 
     psi = 0.351*[#  23]+0.340*[#  10]+0.032*[#  28]+0.032*[#  29]+0.032*[#  30]
          +0.032*[#  32]+0.032*[#  33]+0.032*[#  34]+0.011*[#  24]+0.011*[#  25]
          +0.011*[#  26]+0.009*[#  11]+0.009*[#  12]+0.009*[#  13]+0.003*[#   1]
          +0.002*[#  14]+0.002*[#  19]+0.002*[#  20]+0.002*[#  22]+0.001*[#  27]
          +0.001*[#  31]
    |psi|^2 = 0.960
==== e(  30) =    25.37536 eV ==== 
     psi = 0.150*[#  11]+0.150*[#  12]+0.150*[#  13]+0.120*[#  24]+0.120*[#  25]
          +0.120*[#  26]+0.029*[#  10]+0.015*[#  23]+0.008*[#  28]+0.008*[#  29]
          +0.008*[#  30]+0.008*[#  32]+0.008*[#  33]+0.008*[#  34]+0.003*[#  19]
          +0.003*[#  20]+0.003*[#  22]+0.002*[#   1]+0.001*[#   6]+0.001*[#   7]
          +0.001*[#   9]
    |psi|^2 = 0.918
==== e(  31) =    26.91429 eV ==== 
     psi = 0.091*[#  23]+0.071*[#  10]+0.053*[#  24]+0.053*[#  25]+0.053*[#  26]
          +0.038*[#  11]+0.038*[#  12]+0.038*[#  13]+0.005*[#  14]+0.004*[#   1]
          +0.004*[#  19]+0.004*[#  20]+0.004*[#  22]+0.003*[#  28]+0.003*[#  29]
          +0.003*[#  30]+0.003*[#  32]+0.003*[#  33]+0.003*[#  34]+0.002*[#  27]
          +0.002*[#  31]+0.001*[#   6]+0.001*[#   7]+0.001*[#   9]
    |psi|^2 = 0.482
==== e(  32) =    27.65814 eV ==== 
     psi = 0.168*[#  11]+0.168*[#  12]+0.168*[#  13]+0.130*[#  24]+0.130*[#  25]
          +0.130*[#  26]+0.006*[#  28]+0.006*[#  29]+0.006*[#  30]+0.006*[#  32]
          +0.006*[#  33]+0.006*[#  34]
    |psi|^2 = 0.935
==== e(  33) =    30.57167 eV ==== 
     psi = 0.109*[#  24]+0.109*[#  25]+0.109*[#  26]+0.082*[#  11]+0.082*[#  12]
          +0.082*[#  13]+0.002*[#  28]+0.002*[#  29]+0.002*[#  30]+0.002*[#  32]
          +0.002*[#  33]+0.002*[#  34]+0.002*[#  19]+0.002*[#  20]+0.002*[#  22]
          
    |psi|^2 = 0.597
==== e(  34) =    30.69549 eV ==== 
     psi = 0.099*[#  24]+0.099*[#  25]+0.099*[#  26]+0.094*[#  11]+0.094*[#  12]
          +0.094*[#  13]+0.002*[#  19]+0.002*[#  20]+0.002*[#  22]+0.002*[#  28]
          +0.002*[#  29]+0.002*[#  30]+0.002*[#  32]+0.002*[#  33]+0.002*[#  34]
          
    |psi|^2 = 0.605
==== e(  35) =    32.71538 eV ==== 
     psi = 0.069*[#  23]+0.054*[#  10]+0.039*[#  11]+0.039*[#  12]+0.039*[#  13]
          +0.036*[#  24]+0.036*[#  25]+0.036*[#  26]+0.004*[#  14]+0.004*[#   1]
          +0.002*[#  27]+0.002*[#  28]+0.002*[#  29]+0.002*[#  30]+0.002*[#  31]
          +0.002*[#  32]+0.002*[#  33]+0.002*[#  34]
    |psi|^2 = 0.372
==== e(  36) =    33.69123 eV ==== 
     psi = 0.021*[#  24]+0.021*[#  25]+0.021*[#  26]+0.008*[#  11]+0.008*[#  12]
          +0.008*[#  13]+0.005*[#  10]+0.003*[#  27]+0.003*[#  31]+0.002*[#  28]
          +0.002*[#  29]+0.002*[#  30]+0.002*[#  32]+0.002*[#  33]+0.002*[#  34]
          
    |psi|^2 = 0.109
==== e(  37) =    34.38700 eV ==== 
     psi = 0.045*[#  24]+0.045*[#  25]+0.045*[#  26]+0.039*[#  11]+0.039*[#  12]
          +0.039*[#  13]
    |psi|^2 = 0.260
==== e(  38) =    34.50159 eV ==== 
     psi = 0.040*[#  11]+0.040*[#  12]+0.040*[#  13]+0.039*[#  24]+0.039*[#  25]
          +0.039*[#  26]
    |psi|^2 = 0.248
==== e(  39) =    37.75959 eV ==== 
     psi = 0.008*[#  23]+0.001*[#  11]+0.001*[#  12]+0.001*[#  13]
    |psi|^2 = 0.018
==== e(  40) =    38.23202 eV ==== 
     psi = 0.019*[#  10]+0.016*[#  23]+0.012*[#  24]+0.012*[#  25]+0.012*[#  26]
          +0.010*[#  11]+0.010*[#  12]+0.010*[#  13]+0.001*[#   1]+0.001*[#  14]
          
    |psi|^2 = 0.107

 k =   0.4135024545  0.0831014970 -0.2472994604
==== e(   1) =   -82.89745 eV ==== 
     psi = 0.975*[#   1]+0.004*[#  11]+0.004*[#  12]+0.004*[#  13]+0.002*[#  24]
          +0.002*[#  25]+0.002*[#  26]+0.002*[#  10]
    |psi|^2 = 1.000
==== e(   2) =   -79.72697 eV ==== 
     psi = 0.975*[#  14]+0.004*[#  24]+0.004*[#  25]+0.004*[#  26]+0.002*[#  11]
          +0.002*[#  12]+0.002*[#  13]+0.001*[#  23]
    |psi|^2 = 1.000
==== e(   3) =   -46.32392 eV ==== 
     psi = 0.332*[#   2]+0.332*[#   3]+0.332*[#   4]
    |psi|^2 = 1.000
==== e(   4) =   -46.31328 eV ==== 
     psi = 0.332*[#   2]+0.332*[#   3]+0.332*[#   4]
    |psi|^2 = 1.000
==== e(   5) =   -46.24674 eV ==== 
     psi = 0.332*[#   2]+0.332*[#   3]+0.332*[#   4]
    |psi|^2 = 1.000
==== e(   6) =   -43.26899 eV ==== 
     psi = 0.332*[#  15]+0.332*[#  16]+0.332*[#  17]
    |psi|^2 = 1.000
==== e(   7) =   -43.25620 eV ==== 
     psi = 0.332*[#  15]+0.332*[#  16]+0.332*[#  17]
    |psi|^2 = 1.000
==== e(   8) =   -43.21987 eV ==== 
     psi = 0.332*[#  15]+0.332*[#  16]+0.332*[#  17]
    |psi|^2 = 1.000
==== e(   9) =    -5.80684 eV ==== 
     psi = 0.340*[#  27]+0.340*[#  31]+0.041*[#  10]+0.040*[#  23]+0.038*[#  11]
          +0.038*[#  12]+0.038*[#  13]+0.037*[#  24]+0.037*[#  25]+0.037*[#  26]
          +0.003*[#   1]+0.003*[#  14]+0.001*[#   5]+0.001*[#   8]
    |psi|^2 = 1.000
==== e(  10) =    -5.19037 eV ==== 
     psi = 0.406*[#  27]+0.406*[#  31]+0.025*[#  11]+0.025*[#  12]+0.025*[#  13]
          +0.025*[#  24]+0.025*[#  25]+0.025*[#  26]+0.008*[#   5]+0.008*[#   8]
          +0.007*[#  18]+0.007*[#  21]+0.003*[#  10]+0.003*[#  23]
    |psi|^2 = 0.999
==== e(  11) =     6.66328 eV ==== 
     psi = 0.103*[#  28]+0.103*[#  29]+0.103*[#  30]+0.103*[#  32]+0.103*[#  33]
          +0.103*[#  34]+0.055*[#  23]+0.040*[#  10]+0.025*[#  24]+0.025*[#  25]
          +0.025*[#  26]+0.023*[#  11]+0.023*[#  12]+0.023*[#  13]+0.020*[#   5]
          +0.020*[#   6]+0.020*[#   7]+0.020*[#   8]+0.020*[#   9]+0.009*[#  19]
          +0.009*[#  20]+0.009*[#  22]+0.004*[#  18]+0.004*[#  21]+0.003*[#  27]
          +0.003*[#  31]+0.002*[#  14]+0.001*[#   1]
    |psi|^2 = 0.999
==== e(  12) =     7.22553 eV ==== 
     psi = 0.103*[#  28]+0.103*[#  29]+0.103*[#  30]+0.103*[#  32]+0.103*[#  33]
          +0.103*[#  34]+0.072*[#  10]+0.047*[#  23]+0.039*[#   5]+0.039*[#   8]
          +0.024*[#  27]+0.024*[#  31]+0.014*[#  18]+0.014*[#  21]+0.014*[#   6]
          +0.014*[#   7]+0.014*[#   9]+0.008*[#  19]+0.008*[#  20]+0.008*[#  22]
          +0.008*[#  11]+0.008*[#  12]+0.008*[#  13]+0.004*[#  24]+0.004*[#  25]
          +0.004*[#  26]+0.002*[#   1]+0.002*[#  14]
    |psi|^2 = 0.998
==== e(  13) =     7.84707 eV ==== 
     psi = 0.102*[#  28]+0.102*[#  29]+0.102*[#  30]+0.102*[#  32]+0.102*[#  33]
          +0.102*[#  34]+0.043*[#   5]+0.043*[#   8]+0.034*[#   6]+0.034*[#   7]
          +0.034*[#   9]+0.026*[#  24]+0.026*[#  25]+0.026*[#  26]+0.025*[#  11]
          +0.025*[#  12]+0.025*[#  13]+0.010*[#  19]+0.010*[#  20]+0.010*[#  22]
          +0.005*[#  18]+0.005*[#  21]+0.004*[#  23]+0.001*[#  10]
    |psi|^2 = 0.999
==== e(  14) =     8.19972 eV ==== 
     psi = 0.110*[#   5]+0.110*[#   8]+0.104*[#  28]+0.104*[#  29]+0.104*[#  30]
          +0.104*[#  32]+0.104*[#  33]+0.104*[#  34]+0.031*[#  18]+0.031*[#  21]
          +0.014*[#  10]+0.010*[#  24]+0.010*[#  25]+0.010*[#  26]+0.006*[#  11]
          +0.006*[#  12]+0.006*[#  13]+0.006*[#   6]+0.006*[#   7]+0.006*[#   9]
          +0.003*[#  19]+0.003*[#  20]+0.003*[#  22]+0.002*[#  23]
    |psi|^2 = 0.999
==== e(  15) =     8.73588 eV ==== 
     psi = 0.102*[#   5]+0.102*[#   8]+0.100*[#  28]+0.100*[#  29]+0.100*[#  30]
          +0.100*[#  32]+0.100*[#  33]+0.100*[#  34]+0.039*[#  18]+0.039*[#  21]
          +0.023*[#   6]+0.023*[#   7]+0.023*[#   9]+0.005*[#  23]+0.005*[#  19]
          +0.005*[#  20]+0.005*[#  22]+0.004*[#  10]+0.004*[#  11]+0.004*[#  12]
          +0.004*[#  13]+0.003*[#  24]+0.003*[#  25]+0.003*[#  26]+0.001*[#  27]
          +0.001*[#  31]
    |psi|^2 = 0.997
==== e(  16) =     9.05946 eV ==== 
     psi = 0.112*[#  28]+0.112*[#  29]+0.112*[#  30]+0.112*[#  32]+0.112*[#  33]
          +0.112*[#  34]+0.039*[#   6]+0.039*[#   7]+0.039*[#   9]+0.028*[#  18]
          +0.028*[#  21]+0.020*[#  19]+0.020*[#  20]+0.020*[#  22]+0.015*[#   5]
          +0.015*[#   8]+0.012*[#  11]+0.012*[#  12]+0.012*[#  13]+0.009*[#  24]
          +0.009*[#  25]+0.009*[#  26]
    |psi|^2 = 0.997
==== e(  17) =    11.04475 eV ==== 
     psi = 0.302*[#   6]+0.302*[#   7]+0.302*[#   9]+0.010*[#  19]+0.010*[#  20]
          +0.010*[#  22]+0.008*[#  28]+0.008*[#  29]+0.008*[#  30]+0.008*[#  32]
          +0.008*[#  33]+0.008*[#  34]+0.003*[#  23]+0.002*[#  10]+0.002*[#   5]
          +0.002*[#   8]+0.001*[#  18]+0.001*[#  21]
    |psi|^2 = 0.997
==== e(  18) =    11.38508 eV ==== 
     psi = 0.244*[#   6]+0.244*[#   7]+0.244*[#   9]+0.032*[#  28]+0.032*[#  29]
          +0.032*[#  30]+0.032*[#  32]+0.032*[#  33]+0.032*[#  34]+0.013*[#   5]
          +0.013*[#   8]+0.007*[#  18]+0.007*[#  21]+0.006*[#  19]+0.006*[#  20]
          +0.006*[#  22]+0.005*[#  23]+0.002*[#  27]+0.002*[#  31]+0.002*[#  10]
          +0.001*[#  11]+0.001*[#  12]+0.001*[#  13]
    |psi|^2 = 0.997
==== e(  19) =    11.52049 eV ==== 
     psi = 0.269*[#   6]+0.269*[#   7]+0.269*[#   9]+0.035*[#   5]+0.035*[#   8]
          +0.013*[#  28]+0.013*[#  29]+0.013*[#  30]+0.013*[#  32]+0.013*[#  33]
          +0.013*[#  34]+0.013*[#  18]+0.013*[#  21]+0.003*[#  19]+0.003*[#  20]
          +0.003*[#  22]+0.002*[#  24]+0.002*[#  25]+0.002*[#  26]
    |psi|^2 = 0.999
==== e(  20) =    12.05006 eV ==== 
     psi = 0.306*[#   5]+0.306*[#   8]+0.032*[#  18]+0.032*[#  21]+0.029*[#  28]
          +0.029*[#  29]+0.029*[#  30]+0.029*[#  32]+0.029*[#  33]+0.029*[#  34]
          +0.028*[#  23]+0.014*[#  19]+0.014*[#  20]+0.014*[#  22]+0.013*[#  27]
          +0.013*[#  31]+0.012*[#   6]+0.012*[#   7]+0.012*[#   9]+0.003*[#  11]
          +0.003*[#  12]+0.003*[#  13]+0.002*[#  24]+0.002*[#  25]+0.002*[#  26]
          
    |psi|^2 = 0.998
==== e(  21) =    12.47288 eV ==== 
     psi = 0.262*[#   5]+0.262*[#   8]+0.048*[#  28]+0.048*[#  29]+0.048*[#  30]
          +0.048*[#  32]+0.048*[#  33]+0.048*[#  34]+0.034*[#  18]+0.034*[#  21]
          +0.017*[#   6]+0.017*[#   7]+0.017*[#   9]+0.011*[#  27]+0.011*[#  31]
          +0.008*[#  19]+0.008*[#  20]+0.008*[#  22]+0.006*[#  24]+0.006*[#  25]
          +0.006*[#  26]+0.001*[#  11]+0.001*[#  12]+0.001*[#  13]
    |psi|^2 = 0.998
==== e(  22) =    13.34038 eV ==== 
     psi = 0.304*[#  19]+0.304*[#  20]+0.304*[#  22]+0.009*[#  28]+0.009*[#  29]
          +0.009*[#  30]+0.009*[#  32]+0.009*[#  33]+0.009*[#  34]+0.005*[#   6]
          +0.005*[#   7]+0.005*[#   9]+0.002*[#  23]
    |psi|^2 = 0.992
==== e(  23) =    13.43451 eV ==== 
     psi = 0.271*[#  19]+0.271*[#  20]+0.271*[#  22]+0.021*[#  28]+0.021*[#  29]
          +0.021*[#  30]+0.021*[#  32]+0.021*[#  33]+0.021*[#  34]+0.011*[#   5]
          +0.011*[#   8]+0.006*[#   6]+0.006*[#   7]+0.006*[#   9]+0.003*[#  10]
          +0.001*[#  23]+0.001*[#  18]+0.001*[#  21]
    |psi|^2 = 0.992
==== e(  24) =    13.84500 eV ==== 
     psi = 0.307*[#  19]+0.307*[#  20]+0.307*[#  22]+0.009*[#  28]+0.009*[#  29]
          +0.009*[#  30]+0.009*[#  32]+0.009*[#  33]+0.009*[#  34]+0.003*[#  10]
          +0.003*[#  18]+0.003*[#  21]+0.002*[#  27]+0.002*[#  31]+0.002*[#   5]
          +0.002*[#   8]+0.001*[#   6]+0.001*[#   7]+0.001*[#   9]
    |psi|^2 = 0.997
==== e(  25) =    14.82180 eV ==== 
     psi = 0.372*[#  18]+0.372*[#  21]+0.040*[#  10]+0.023*[#  28]+0.023*[#  29]
          +0.023*[#  30]+0.023*[#  32]+0.023*[#  33]+0.023*[#  34]+0.014*[#   5]
          +0.014*[#   8]+0.013*[#  27]+0.013*[#  31]+0.004*[#  24]+0.004*[#  25]
          +0.004*[#  26]+0.001*[#  11]+0.001*[#  12]+0.001*[#  13]
    |psi|^2 = 0.997
==== e(  26) =    15.11386 eV ==== 
     psi = 0.381*[#  18]+0.381*[#  21]+0.029*[#  28]+0.029*[#  29]+0.029*[#  30]
          +0.029*[#  32]+0.029*[#  33]+0.029*[#  34]+0.010*[#  27]+0.010*[#  31]
          +0.008*[#   5]+0.008*[#   8]+0.006*[#  11]+0.006*[#  12]+0.006*[#  13]
          +0.002*[#  23]+0.001*[#  19]+0.001*[#  20]+0.001*[#  22]
    |psi|^2 = 0.998
==== e(  27) =    18.20251 eV ==== 
     psi = 0.112*[#  10]+0.096*[#  23]+0.094*[#  27]+0.094*[#  31]+0.049*[#  11]
          +0.049*[#  12]+0.049*[#  13]+0.047*[#  24]+0.047*[#  25]+0.047*[#  26]
          +0.043*[#  28]+0.043*[#  29]+0.043*[#  30]+0.043*[#  32]+0.043*[#  33]
          +0.043*[#  34]+0.017*[#  18]+0.017*[#  21]+0.004*[#   5]+0.004*[#   8]
          +0.002*[#  14]+0.002*[#   1]
    |psi|^2 = 0.992
==== e(  28) =    21.29534 eV ==== 
     psi = 0.154*[#  23]+0.150*[#  10]+0.061*[#  11]+0.061*[#  12]+0.061*[#  13]
          +0.059*[#  24]+0.059*[#  25]+0.059*[#  26]+0.038*[#  27]+0.038*[#  31]
          +0.035*[#  28]+0.035*[#  29]+0.035*[#  30]+0.035*[#  32]+0.035*[#  33]
          +0.035*[#  34]+0.004*[#  18]+0.004*[#  21]+0.002*[#  19]+0.002*[#  20]
          +0.002*[#  22]+0.002*[#   5]+0.002*[#   8]
    |psi|^2 = 0.973
==== e(  29) =    22.92530 eV ==== 
     psi = 0.258*[#  10]+0.229*[#  23]+0.055*[#  11]+0.055*[#  12]+0.055*[#  13]
          +0.052*[#  24]+0.052*[#  25]+0.052*[#  26]+0.018*[#  28]+0.018*[#  29]
          +0.018*[#  30]+0.018*[#  32]+0.018*[#  33]+0.018*[#  34]+0.010*[#  27]
          +0.010*[#  31]+0.004*[#   1]+0.003*[#  14]+0.002*[#  19]+0.002*[#  20]
          +0.002*[#  22]+0.001*[#  18]+0.001*[#  21]
    |psi|^2 = 0.955
==== e(  30) =    24.09947 eV ==== 
     psi = 0.126*[#  11]+0.126*[#  12]+0.126*[#  13]+0.108*[#  24]+0.108*[#  25]
          +0.108*[#  26]+0.022*[#  28]+0.022*[#  29]+0.022*[#  30]+0.022*[#  32]
          +0.022*[#  33]+0.022*[#  34]+0.015*[#  10]+0.006*[#  19]+0.006*[#  20]
          +0.006*[#  22]+0.005*[#  23]+0.003*[#   6]+0.003*[#   7]+0.003*[#   9]
          
    |psi|^2 = 0.886
==== e(  31) =    25.23943 eV ==== 
     psi = 0.108*[#  23]+0.083*[#  11]+0.083*[#  12]+0.083*[#  13]+0.070*[#  10]
          +0.067*[#  24]+0.067*[#  25]+0.067*[#  26]+0.008*[#  28]+0.008*[#  29]
          +0.008*[#  30]+0.008*[#  32]+0.008*[#  33]+0.008*[#  34]+0.005*[#  19]
          +0.005*[#  20]+0.005*[#  22]+0.003*[#  14]+0.003*[#   1]+0.002*[#  27]
          +0.002*[#  31]+0.002*[#   6]+0.002*[#   7]+0.002*[#   9]
    |psi|^2 = 0.713
==== e(  32) =    26.96552 eV ==== 
     psi = 0.166*[#  23]+0.139*[#  10]+0.093*[#  11]+0.093*[#  12]+0.093*[#  13]
          +0.075*[#  24]+0.075*[#  25]+0.075*[#  26]+0.007*[#  14]+0.007*[#   1]
          +0.005*[#  27]+0.005*[#  31]+0.003*[#  28]+0.003*[#  29]+0.003*[#  30]
          +0.003*[#  32]+0.003*[#  33]+0.003*[#  34]+0.001*[#  19]+0.001*[#  20]
          +0.001*[#  22]
    |psi|^2 = 0.861
==== e(  33) =    27.62165 eV ==== 
     psi = 0.164*[#  24]+0.164*[#  25]+0.164*[#  26]+0.133*[#  11]+0.133*[#  12]
          +0.133*[#  13]+0.011*[#  27]+0.011*[#  31]+0.009*[#  23]+0.008*[#  28]
          +0.008*[#  29]+0.008*[#  30]+0.008*[#  32]+0.008*[#  33]+0.008*[#  34]
          
    |psi|^2 = 0.971
==== e(  34) =    29.43701 eV ==== 
     psi = 0.149*[#  24]+0.149*[#  25]+0.149*[#  26]+0.139*[#  11]+0.139*[#  12]
          +0.139*[#  13]+0.003*[#  28]+0.003*[#  29]+0.003*[#  30]+0.003*[#  32]
          +0.003*[#  33]+0.003*[#  34]+0.001*[#  18]+0.001*[#  21]
    |psi|^2 = 0.891
==== e(  35) =    32.11350 eV ==== 
     psi = 0.034*[#  24]+0.034*[#  25]+0.034*[#  26]+0.026*[#  11]+0.026*[#  12]
          +0.026*[#  13]+0.002*[#  28]+0.002*[#  29]+0.002*[#  30]+0.002*[#  32]
          +0.002*[#  33]+0.002*[#  34]+0.001*[#  19]+0.001*[#  20]+0.001*[#  22]
          
    |psi|^2 = 0.201
==== e(  36) =    33.38109 eV ==== 
     psi = 0.014*[#  24]+0.014*[#  25]+0.014*[#  26]+0.012*[#  11]+0.012*[#  12]
          +0.012*[#  13]+0.003*[#  28]+0.003*[#  29]+0.003*[#  30]+0.003*[#  32]
          +0.003*[#  33]+0.003*[#  34]
    |psi|^2 = 0.100
==== e(  37) =    36.04062 eV ==== 
     psi = 0.007*[#  11]+0.007*[#  12]+0.007*[#  13]+0.005*[#  24]+0.005*[#  25]
          +0.005*[#  26]+0.002*[#  23]+0.002*[#  27]+0.002*[#  31]+0.001*[#  28]
          +0.001*[#  29]+0.001*[#  30]+0.001*[#  32]+0.001*[#  33]+0.001*[#  34]
          
    |psi|^2 = 0.051
==== e(  38) =    36.15450 eV ==== 
     psi = 0.017*[#  24]+0.017*[#  25]+0.017*[#  26]+0.011*[#  11]+0.011*[#  12]
          +0.011*[#  13]+0.005*[#  10]+0.005*[#  23]+0.001*[#  28]+0.001*[#  29]
          +0.001*[#  30]+0.001*[#  32]+0.001*[#  33]+0.001*[#  34]
    |psi|^2 = 0.104
==== e(  39) =    37.42253 eV ==== 
     psi = 0.003*[#  24]+0.003*[#  25]+0.003*[#  26]+0.002*[#  11]+0.002*[#  12]
          +0.002*[#  13]
    |psi|^2 = 0.019
==== e(  40) =    41.61437 eV ==== 
     psi = 0.004*[#  11]+0.004*[#  12]+0.004*[#  13]+0.003*[#  24]+0.003*[#  25]
          +0.003*[#  26]+0.003*[#  23]
    |psi|^2 = 0.029

 k =  -0.8263365654  0.4952672644  0.1648663069
==== e(   1) =   -82.89659 eV ==== 
     psi = 0.986*[#   1]+0.003*[#  10]+0.002*[#  24]+0.002*[#  25]+0.002*[#  26]
          
    |psi|^2 = 1.000
==== e(   2) =   -79.72595 eV ==== 
     psi = 0.986*[#  14]+0.002*[#  23]+0.002*[#  11]+0.002*[#  12]+0.002*[#  13]
          
    |psi|^2 = 1.000
==== e(   3) =   -46.33208 eV ==== 
     psi = 0.332*[#   2]+0.332*[#   3]+0.332*[#   4]
    |psi|^2 = 1.000
==== e(   4) =   -46.31817 eV ==== 
     psi = 0.332*[#   2]+0.332*[#   3]+0.332*[#   4]
    |psi|^2 = 1.000
==== e(   5) =   -46.24496 eV ==== 
     psi = 0.332*[#   2]+0.332*[#   3]+0.332*[#   4]
    |psi|^2 = 1.000
==== e(   6) =   -43.27880 eV ==== 
     psi = 0.332*[#  15]+0.332*[#  16]+0.332*[#  17]
    |psi|^2 = 1.000
==== e(   7) =   -43.26205 eV ==== 
     psi = 0.332*[#  15]+0.332*[#  16]+0.332*[#  17]
    |psi|^2 = 1.000
==== e(   8) =   -43.21790 eV ==== 
     psi = 0.332*[#  15]+0.332*[#  16]+0.332*[#  17]
    |psi|^2 = 1.000
==== e(   9) =    -5.33396 eV ==== 
     psi = 0.389*[#  27]+0.389*[#  31]+0.029*[#  24]+0.029*[#  25]+0.029*[#  26]
          +0.028*[#  11]+0.028*[#  12]+0.028*[#  13]+0.012*[#  10]+0.011*[#  23]
          +0.007*[#   5]+0.007*[#   8]+0.005*[#  18]+0.005*[#  21]
    |psi|^2 = 1.000
==== e(  10) =    -5.14776 eV ==== 
     psi = 0.411*[#  27]+0.411*[#  31]+0.025*[#  11]+0.025*[#  12]+0.025*[#  13]
          +0.023*[#  24]+0.023*[#  25]+0.023*[#  26]+0.008*[#   5]+0.008*[#   8]
          +0.007*[#  18]+0.007*[#  21]
    |psi|^2 = 0.999
==== e(  11) =     6.63973 eV ==== 
     psi = 0.101*[#  28]+0.101*[#  29]+0.101*[#  30]+0.101*[#  32]+0.101*[#  33]
          +0.101*[#  34]+0.059*[#  10]+0.032*[#  23]+0.030*[#   5]+0.030*[#   8]
          +0.029*[#  24]+0.029*[#  25]+0.029*[#  26]+0.016*[#  11]+0.016*[#  12]
          +0.016*[#  13]+0.014*[#   6]+0.014*[#   7]+0.014*[#   9]+0.011*[#  18]
          +0.011*[#  21]+0.010*[#  27]+0.010*[#  31]+0.006*[#  19]+0.006*[#  20]
          +0.006*[#  22]+0.002*[#   1]+0.002*[#  14]
    |psi|^2 = 0.999
==== e(  12) =     6.72896 eV ==== 
     psi = 0.104*[#  28]+0.104*[#  29]+0.104*[#  30]+0.104*[#  32]+0.104*[#  33]
          +0.104*[#  34]+0.063*[#  23]+0.042*[#  10]+0.029*[#  11]+0.029*[#  12]
          +0.029*[#  13]+0.024*[#   6]+0.024*[#   7]+0.024*[#   9]+0.019*[#  24]
          +0.019*[#  25]+0.019*[#  26]+0.012*[#  19]+0.012*[#  20]+0.012*[#  22]
          +0.008*[#   5]+0.008*[#   8]+0.002*[#  14]+0.001*[#  18]+0.001*[#  21]
          
    |psi|^2 = 0.999
==== e(  13) =     7.64586 eV ==== 
     psi = 0.103*[#  28]+0.103*[#  29]+0.103*[#  30]+0.103*[#  32]+0.103*[#  33]
          +0.103*[#  34]+0.054*[#   5]+0.054*[#   8]+0.030*[#  24]+0.030*[#  25]
          +0.030*[#  26]+0.026*[#  11]+0.026*[#  12]+0.026*[#  13]+0.021*[#   6]
          +0.021*[#   7]+0.021*[#   9]+0.009*[#  19]+0.009*[#  20]+0.009*[#  22]
          +0.006*[#  18]+0.006*[#  21]+0.001*[#  23]
    |psi|^2 = 0.999
==== e(  14) =     8.18615 eV ==== 
     psi = 0.112*[#   5]+0.112*[#   8]+0.104*[#  28]+0.104*[#  29]+0.104*[#  30]
          +0.104*[#  32]+0.104*[#  33]+0.104*[#  34]+0.037*[#  18]+0.037*[#  21]
          +0.012*[#  11]+0.012*[#  12]+0.012*[#  13]+0.006*[#  10]+0.006*[#  23]
          +0.004*[#  24]+0.004*[#  25]+0.004*[#  26]+0.003*[#   6]+0.003*[#   7]
          +0.003*[#   9]+0.001*[#  19]+0.001*[#  20]+0.001*[#  22]
    |psi|^2 = 0.998
==== e(  15) =     8.31573 eV ==== 
     psi = 0.107*[#  28]+0.107*[#  29]+0.107*[#  30]+0.107*[#  32]+0.107*[#  33]
          +0.107*[#  34]+0.044*[#   6]+0.044*[#   7]+0.044*[#   9]+0.026*[#  11]
          +0.026*[#  12]+0.026*[#  13]+0.025*[#  24]+0.025*[#  25]+0.025*[#  26]
          +0.021*[#  19]+0.021*[#  20]+0.021*[#  22]+0.002*[#   5]+0.002*[#   8]
          
    |psi|^2 = 0.999
==== e(  16) =     8.43414 eV ==== 
     psi = 0.110*[#  28]+0.110*[#  29]+0.110*[#  30]+0.110*[#  32]+0.110*[#  33]
          +0.110*[#  34]+0.078*[#   5]+0.078*[#   8]+0.054*[#  18]+0.054*[#  21]
          +0.017*[#  10]+0.008*[#  11]+0.008*[#  12]+0.008*[#  13]+0.006*[#  23]
          +0.003*[#  19]+0.003*[#  20]+0.003*[#  22]+0.003*[#   6]+0.003*[#   7]
          +0.003*[#   9]+0.001*[#  24]+0.001*[#  25]+0.001*[#  26]+0.001*[#  27]
          +0.001*[#  31]
    |psi|^2 = 0.998
==== e(  17) =    11.08741 eV ==== 
     psi = 0.284*[#   6]+0.284*[#   7]+0.284*[#   9]+0.016*[#  28]+0.016*[#  29]
          +0.016*[#  30]+0.016*[#  32]+0.016*[#  33]+0.016*[#  34]+0.011*[#   5]
          +0.011*[#   8]+0.004*[#  18]+0.004*[#  21]+0.004*[#  19]+0.004*[#  20]
          +0.004*[#  22]
    |psi|^2 = 0.996
==== e(  18) =    11.43259 eV ==== 
     psi = 0.280*[#   6]+0.280*[#   7]+0.280*[#   9]+0.045*[#   5]+0.045*[#   8]
          +0.008*[#  28]+0.008*[#  29]+0.008*[#  30]+0.008*[#  32]+0.008*[#  33]
          +0.008*[#  34]+0.004*[#  18]+0.004*[#  21]+0.002*[#  19]+0.002*[#  20]
          +0.002*[#  22]
    |psi|^2 = 0.999
==== e(  19) =    11.60335 eV ==== 
     psi = 0.255*[#   6]+0.255*[#   7]+0.255*[#   9]+0.031*[#   5]+0.031*[#   8]
          +0.023*[#  28]+0.023*[#  29]+0.023*[#  30]+0.023*[#  32]+0.023*[#  33]
          +0.023*[#  34]+0.007*[#  10]+0.004*[#  18]+0.004*[#  21]+0.004*[#  23]
          +0.002*[#  19]+0.002*[#  20]+0.002*[#  22]
    |psi|^2 = 0.999
==== e(  20) =    12.21263 eV ==== 
     psi = 0.279*[#   5]+0.279*[#   8]+0.043*[#   6]+0.043*[#   7]+0.043*[#   9]
          +0.031*[#  18]+0.031*[#  21]+0.030*[#  28]+0.030*[#  29]+0.030*[#  30]
          +0.030*[#  32]+0.030*[#  33]+0.030*[#  34]+0.024*[#  23]+0.013*[#  27]
          +0.013*[#  31]+0.005*[#  24]+0.005*[#  25]+0.005*[#  26]
    |psi|^2 = 0.998
==== e(  21) =    12.39660 eV ==== 
     psi = 0.294*[#   5]+0.294*[#   8]+0.033*[#  28]+0.033*[#  29]+0.033*[#  30]
          +0.033*[#  32]+0.033*[#  33]+0.033*[#  34]+0.028*[#  18]+0.028*[#  21]
          +0.021*[#  19]+0.021*[#  20]+0.021*[#  22]+0.015*[#  27]+0.015*[#  31]
          +0.011*[#   6]+0.011*[#   7]+0.011*[#   9]+0.008*[#  24]+0.008*[#  25]
          +0.008*[#  26]+0.005*[#  23]
    |psi|^2 = 0.997
==== e(  22) =    13.24554 eV ==== 
     psi = 0.275*[#  19]+0.275*[#  20]+0.275*[#  22]+0.019*[#  28]+0.019*[#  29]
          +0.019*[#  30]+0.019*[#  32]+0.019*[#  33]+0.019*[#  34]+0.014*[#   5]
          +0.014*[#   8]+0.006*[#   6]+0.006*[#   7]+0.006*[#   9]+0.001*[#  10]
          
    |psi|^2 = 0.990
==== e(  23) =    13.71886 eV ==== 
     psi = 0.303*[#  19]+0.303*[#  20]+0.303*[#  22]+0.012*[#  28]+0.012*[#  29]
          +0.012*[#  30]+0.012*[#  32]+0.012*[#  33]+0.012*[#  34]+0.002*[#   5]
          +0.003*[#   6]+0.003*[#   7]+0.002*[#   8]+0.003*[#   9]
    |psi|^2 = 0.996
==== e(  24) =    13.92415 eV ==== 
     psi = 0.313*[#  19]+0.313*[#  20]+0.313*[#  22]+0.007*[#  18]+0.007*[#  21]
          +0.007*[#  28]+0.007*[#  29]+0.007*[#  30]+0.007*[#  32]+0.007*[#  33]
          +0.007*[#  34]+0.003*[#  23]+0.001*[#   5]+0.001*[#   8]
    |psi|^2 = 0.998
==== e(  25) =    14.95349 eV ==== 
     psi = 0.391*[#  18]+0.391*[#  21]+0.033*[#  10]+0.021*[#  28]+0.021*[#  29]
          +0.021*[#  30]+0.021*[#  32]+0.021*[#  33]+0.021*[#  34]+0.011*[#   5]
          +0.011*[#   8]+0.006*[#  27]+0.006*[#  31]+0.004*[#  19]+0.004*[#  20]
          +0.004*[#  22]+0.002*[#  11]+0.002*[#  12]+0.002*[#  13]+0.002*[#  23]
          
    |psi|^2 = 0.998
==== e(  26) =    15.14768 eV ==== 
     psi = 0.392*[#  18]+0.392*[#  21]+0.023*[#  28]+0.023*[#  29]+0.023*[#  30]
          +0.023*[#  32]+0.023*[#  33]+0.023*[#  34]+0.016*[#  27]+0.016*[#  31]
          +0.008*[#  11]+0.008*[#  12]+0.008*[#  13]+0.007*[#   5]+0.007*[#   8]
          +0.001*[#  19]+0.001*[#  20]+0.001*[#  22]
    |psi|^2 = 0.999
==== e(  27) =    20.39920 eV ==== 
     psi = 0.195*[#  10]+0.114*[#  23]+0.050*[#  11]+0.050*[#  12]+0.050*[#  13]
          +0.050*[#  27]+0.050*[#  31]+0.048*[#  24]+0.048*[#  25]+0.048*[#  26]
          +0.042*[#  28]+0.042*[#  29]+0.042*[#  30]+0.042*[#  32]+0.042*[#  33]
          +0.042*[#  34]+0.009*[#  18]+0.009*[#  21]+0.003*[#   5]+0.003*[#   8]
          
    |psi|^2 = 0.985
==== e(  28) =    22.01192 eV ==== 
     psi = 0.115*[#  11]+0.115*[#  12]+0.115*[#  13]+0.103*[#  24]+0.103*[#  25]
          +0.103*[#  26]+0.043*[#  27]+0.043*[#  31]+0.025*[#  28]+0.025*[#  29]
          +0.025*[#  30]+0.025*[#  32]+0.025*[#  33]+0.025*[#  34]+0.013*[#  10]
          +0.006*[#  23]+0.005*[#  19]+0.005*[#  20]+0.005*[#  22]+0.003*[#  18]
          +0.003*[#  21]+0.002*[#   6]+0.002*[#   7]+0.002*[#   9]+0.001*[#   5]
          +0.001*[#   8]
    |psi|^2 = 0.937
==== e(  29) =    22.24727 eV ==== 
     psi = 0.401*[#  10]+0.354*[#  23]+0.030*[#  28]+0.030*[#  29]+0.030*[#  30]
          +0.030*[#  32]+0.030*[#  33]+0.030*[#  34]+0.009*[#  24]+0.009*[#  25]
          +0.009*[#  26]+0.003*[#   1]+0.003*[#  11]+0.003*[#  12]+0.003*[#  13]
          +0.002*[#  27]+0.002*[#  31]+0.002*[#  18]+0.002*[#  21]+0.001*[#   5]
[...]
          +0.022*[#   7]+0.022*[#   9]+0.016*[#  18]+0.016*[#  21]+0.013*[#  10]
          +0.004*[#  27]+0.004*[#  31]
    |psi|^2 = 0.994
==== e(  19) =    11.64685 eV ==== 
     psi = 0.246*[#  19]+0.246*[#  20]+0.246*[#  22]+0.039*[#  18]+0.039*[#  21]
          +0.025*[#  28]+0.025*[#  29]+0.025*[#  30]+0.025*[#  32]+0.025*[#  33]
          +0.025*[#  34]+0.012*[#   5]+0.012*[#   8]+0.003*[#  23]+0.002*[#   6]
          +0.002*[#   7]+0.002*[#   9]
    |psi|^2 = 0.999
==== e(  20) =    11.92164 eV ==== 
     psi = 0.337*[#  18]+0.337*[#  21]+0.032*[#   5]+0.032*[#   8]+0.021*[#  28]
          +0.021*[#  29]+0.021*[#  30]+0.021*[#  32]+0.021*[#  33]+0.021*[#  34]
          +0.021*[#  27]+0.021*[#  31]+0.010*[#  10]+0.009*[#  19]+0.009*[#  20]
          +0.009*[#  22]+0.008*[#   6]+0.008*[#   7]+0.008*[#   9]+0.008*[#  11]
          +0.008*[#  12]+0.008*[#  13]
    |psi|^2 = 0.998
==== e(  21) =    12.44670 eV ==== 
     psi = 0.248*[#  18]+0.248*[#  21]+0.052*[#  28]+0.052*[#  29]+0.052*[#  30]
          +0.052*[#  32]+0.052*[#  33]+0.052*[#  34]+0.026*[#   5]+0.026*[#   8]
          +0.021*[#  19]+0.021*[#  20]+0.021*[#  22]+0.017*[#   6]+0.017*[#   7]
          +0.017*[#   9]+0.006*[#  11]+0.006*[#  12]+0.006*[#  13]+0.002*[#  23]
          
    |psi|^2 = 0.997
==== e(  22) =    13.41079 eV ==== 
     psi = 0.290*[#   6]+0.290*[#   7]+0.290*[#   9]+0.018*[#  19]+0.018*[#  20]
          +0.018*[#  22]+0.008*[#  28]+0.008*[#  29]+0.008*[#  30]+0.008*[#  32]
          +0.008*[#  33]+0.008*[#  34]+0.005*[#  18]+0.005*[#  21]+0.004*[#  10]
          +0.001*[#  27]+0.001*[#  31]
    |psi|^2 = 0.992
==== e(  23) =    13.43180 eV ==== 
     psi = 0.269*[#   6]+0.269*[#   7]+0.269*[#   9]+0.018*[#  19]+0.018*[#  20]
          +0.018*[#  22]+0.016*[#  28]+0.016*[#  29]+0.016*[#  30]+0.016*[#  32]
          +0.016*[#  33]+0.016*[#  34]+0.008*[#  23]+0.008*[#  18]+0.008*[#  21]
          +0.004*[#   5]+0.004*[#   8]+0.001*[#  27]+0.001*[#  31]
    |psi|^2 = 0.992
==== e(  24) =    13.87224 eV ==== 
     psi = 0.303*[#   6]+0.303*[#   7]+0.303*[#   9]+0.014*[#  28]+0.014*[#  29]
          +0.014*[#  30]+0.014*[#  32]+0.014*[#  33]+0.014*[#  34]+0.002*[#   5]
          +0.002*[#   8]+0.002*[#  18]+0.002*[#  21]
    |psi|^2 = 0.997
==== e(  25) =    14.71729 eV ==== 
     psi = 0.374*[#   5]+0.374*[#   8]+0.034*[#  27]+0.034*[#  31]+0.027*[#  23]
          +0.015*[#  28]+0.015*[#  29]+0.015*[#  30]+0.015*[#  32]+0.015*[#  33]
          +0.015*[#  34]+0.012*[#  18]+0.012*[#  21]+0.008*[#  24]+0.008*[#  25]
          +0.008*[#  26]+0.004*[#  11]+0.004*[#  12]+0.004*[#  13]
    |psi|^2 = 0.997
==== e(  26) =    15.04040 eV ==== 
     psi = 0.385*[#   5]+0.385*[#   8]+0.028*[#  28]+0.028*[#  29]+0.028*[#  30]
          +0.028*[#  32]+0.028*[#  33]+0.028*[#  34]+0.008*[#  27]+0.008*[#  31]
          +0.007*[#  24]+0.007*[#  25]+0.007*[#  26]+0.006*[#  18]+0.006*[#  21]
          +0.001*[#  11]+0.001*[#  12]+0.001*[#  13]
    |psi|^2 = 0.997
==== e(  27) =    19.50923 eV ==== 
     psi = 0.265*[#  23]+0.059*[#  27]+0.059*[#  31]+0.047*[#  28]+0.047*[#  29]
          +0.047*[#  30]+0.047*[#  32]+0.047*[#  33]+0.047*[#  34]+0.046*[#  24]
          +0.046*[#  25]+0.046*[#  26]+0.043*[#  11]+0.043*[#  12]+0.043*[#  13]
          +0.027*[#   5]+0.027*[#   8]+0.001*[#  18]+0.001*[#  21]
    |psi|^2 = 0.990
==== e(  28) =    19.62615 eV ==== 
     psi = 0.252*[#  10]+0.069*[#  27]+0.069*[#  31]+0.051*[#  11]+0.051*[#  12]
          +0.051*[#  13]+0.050*[#  24]+0.050*[#  25]+0.050*[#  26]+0.044*[#  28]
          +0.044*[#  29]+0.044*[#  30]+0.044*[#  32]+0.044*[#  33]+0.044*[#  34]
          +0.008*[#  18]+0.008*[#  21]+0.003*[#   5]+0.003*[#   8]+0.002*[#   1]
          
    |psi|^2 = 0.988
==== e(  29) =    24.16264 eV ==== 
     psi = 0.404*[#  23]+0.116*[#  24]+0.116*[#  25]+0.116*[#  26]+0.013*[#  14]
          +0.010*[#  11]+0.010*[#  12]+0.010*[#  13]+0.010*[#  28]+0.010*[#  29]
          +0.010*[#  30]+0.010*[#  32]+0.010*[#  33]+0.010*[#  34]+0.007*[#  27]
          +0.007*[#  31]+0.003*[#   6]+0.003*[#   7]+0.003*[#   9]+0.001*[#  19]
          +0.001*[#  20]+0.001*[#  22]
    |psi|^2 = 0.879
==== e(  30) =    24.44188 eV ==== 
     psi = 0.388*[#  10]+0.102*[#  11]+0.102*[#  12]+0.102*[#  13]+0.016*[#  24]
          +0.016*[#  25]+0.016*[#  26]+0.010*[#   1]+0.010*[#  28]+0.010*[#  29]
          +0.010*[#  30]+0.010*[#  32]+0.010*[#  33]+0.010*[#  34]+0.005*[#  27]
          +0.005*[#  31]+0.003*[#   6]+0.003*[#   7]+0.003*[#   9]+0.001*[#  19]
          +0.001*[#  20]+0.001*[#  22]
    |psi|^2 = 0.835
==== e(  31) =    25.30379 eV ==== 
     psi = 0.197*[#  24]+0.197*[#  25]+0.197*[#  26]+0.151*[#  10]+0.006*[#  28]
          +0.006*[#  29]+0.006*[#  30]+0.006*[#  32]+0.006*[#  33]+0.006*[#  34]
          +0.006*[#   1]+0.004*[#   6]+0.004*[#   7]+0.004*[#   9]+0.002*[#  19]
          +0.002*[#  20]+0.002*[#  22]+0.001*[#  27]+0.001*[#  31]
    |psi|^2 = 0.808
==== e(  32) =    25.39110 eV ==== 
     psi = 0.193*[#  11]+0.193*[#  12]+0.193*[#  13]+0.101*[#  23]+0.007*[#  28]
          +0.007*[#  29]+0.007*[#  30]+0.007*[#  32]+0.007*[#  33]+0.007*[#  34]
          +0.005*[#  14]+0.005*[#   6]+0.005*[#   7]+0.005*[#   9]+0.003*[#  24]
          +0.003*[#  25]+0.003*[#  26]+0.002*[#  19]+0.002*[#  20]+0.002*[#  22]
          +0.001*[#  27]+0.001*[#  31]
    |psi|^2 = 0.759
==== e(  33) =    28.56499 eV ==== 
     psi = 0.229*[#  24]+0.229*[#  25]+0.229*[#  26]+0.062*[#  11]+0.062*[#  12]
          +0.062*[#  13]+0.009*[#  28]+0.009*[#  29]+0.009*[#  30]+0.009*[#  32]
          +0.009*[#  33]+0.009*[#  34]+0.005*[#  10]+0.001*[#   5]+0.001*[#   8]
          +0.001*[#  27]+0.001*[#  31]
    |psi|^2 = 0.940
==== e(  34) =    28.81409 eV ==== 
     psi = 0.234*[#  11]+0.234*[#  12]+0.234*[#  13]+0.055*[#  24]+0.055*[#  25]
          +0.055*[#  26]+0.008*[#  28]+0.008*[#  29]+0.008*[#  30]+0.008*[#  32]
          +0.008*[#  33]+0.008*[#  34]+0.006*[#  23]+0.002*[#  27]+0.002*[#  31]
          
    |psi|^2 = 0.930
==== e(  35) =    31.42606 eV ==== 
     psi = 0.060*[#  11]+0.060*[#  12]+0.060*[#  13]+0.017*[#  24]+0.017*[#  25]
          +0.017*[#  26]+0.004*[#  28]+0.004*[#  29]+0.004*[#  30]+0.004*[#  32]
          +0.004*[#  33]+0.004*[#  34]
    |psi|^2 = 0.262
==== e(  36) =    31.43731 eV ==== 
     psi = 0.052*[#  24]+0.052*[#  25]+0.052*[#  26]+0.021*[#  11]+0.021*[#  12]
          +0.021*[#  13]+0.004*[#  28]+0.004*[#  29]+0.004*[#  30]+0.004*[#  32]
          +0.004*[#  33]+0.004*[#  34]+0.003*[#  10]+0.001*[#   6]+0.001*[#   7]
          +0.001*[#   9]
    |psi|^2 = 0.257
==== e(  37) =    38.59578 eV ==== 
     psi = 0.001*[#  11]+0.001*[#  12]+0.001*[#  13]
    |psi|^2 = 0.007
==== e(  38) =    38.61018 eV ==== 
     psi = 0.001*[#  24]+0.001*[#  25]+0.001*[#  26]
    |psi|^2 = 0.008
==== e(  39) =    39.25201 eV ==== 
     psi = 0.008*[#  24]+0.008*[#  25]+0.008*[#  26]+0.007*[#  11]+0.007*[#  12]
          +0.007*[#  13]+0.004*[#  23]
    |psi|^2 = 0.054
==== e(  40) =    39.42195 eV ==== 
     psi = 0.008*[#  11]+0.008*[#  12]+0.008*[#  13]+0.005*[#  10]+0.005*[#  24]
          +0.005*[#  25]+0.005*[#  26]
    |psi|^2 = 0.052

 k =  -0.2493044911 -0.2493044911 -0.2493044911
==== e(   1) =   -82.89876 eV ==== 
     psi = 0.961*[#  14]+0.012*[#  11]+0.012*[#  12]+0.012*[#  13]
    |psi|^2 = 1.000
==== e(   2) =   -79.72883 eV ==== 
     psi = 0.961*[#   1]+0.012*[#  24]+0.012*[#  25]+0.012*[#  26]
    |psi|^2 = 1.000
==== e(   3) =   -46.30790 eV ==== 
     psi = 0.331*[#  15]+0.331*[#  16]+0.331*[#  17]+0.002*[#  24]+0.002*[#  25]
          +0.002*[#  26]
    |psi|^2 = 1.000
==== e(   4) =   -46.30790 eV ==== 
     psi = 0.331*[#  15]+0.331*[#  16]+0.331*[#  17]+0.002*[#  24]+0.002*[#  25]
          +0.002*[#  26]
    |psi|^2 = 1.000
==== e(   5) =   -46.24953 eV ==== 
     psi = 0.332*[#  15]+0.332*[#  16]+0.332*[#  17]+0.001*[#  10]
    |psi|^2 = 1.000
==== e(   6) =   -43.24995 eV ==== 
     psi = 0.332*[#   2]+0.332*[#   3]+0.332*[#   4]+0.001*[#  11]+0.001*[#  12]
          +0.001*[#  13]
    |psi|^2 = 1.000
==== e(   7) =   -43.24995 eV ==== 
     psi = 0.332*[#   2]+0.332*[#   3]+0.332*[#   4]+0.001*[#  11]+0.001*[#  12]
          +0.001*[#  13]
    |psi|^2 = 1.000
==== e(   8) =   -43.22359 eV ==== 
     psi = 0.332*[#   2]+0.332*[#   3]+0.332*[#   4]+0.001*[#  23]
    |psi|^2 = 1.000
==== e(   9) =    -5.93167 eV ==== 
     psi = 0.330*[#  27]+0.330*[#  31]+0.103*[#  23]+0.076*[#  11]+0.076*[#  12]
          +0.076*[#  13]+0.007*[#  14]
    |psi|^2 = 1.000
==== e(  10) =    -5.91386 eV ==== 
     psi = 0.331*[#  27]+0.331*[#  31]+0.099*[#  10]+0.076*[#  24]+0.076*[#  25]
          +0.076*[#  26]+0.007*[#   1]
    |psi|^2 = 1.000
==== e(  11) =     7.39061 eV ==== 
     psi = 0.155*[#  23]+0.101*[#  28]+0.101*[#  29]+0.101*[#  30]+0.101*[#  32]
          +0.101*[#  33]+0.101*[#  34]+0.060*[#  19]+0.060*[#  20]+0.060*[#  22]
          +0.026*[#  27]+0.026*[#  31]+0.002*[#  14]
    |psi|^2 = 0.998
==== e(  12) =     7.61581 eV ==== 
     psi = 0.166*[#  10]+0.114*[#  28]+0.114*[#  29]+0.114*[#  30]+0.114*[#  32]
          +0.114*[#  33]+0.114*[#  34]+0.031*[#   6]+0.031*[#   7]+0.031*[#   9]
          +0.026*[#  27]+0.026*[#  31]+0.003*[#   1]
    |psi|^2 = 0.997
==== e(  13) =     8.47923 eV ==== 
     psi = 0.216*[#  18]+0.216*[#  21]+0.083*[#  28]+0.083*[#  29]+0.083*[#  30]
          +0.083*[#  32]+0.083*[#  33]+0.083*[#  34]+0.021*[#  19]+0.021*[#  20]
          +0.021*[#  22]+0.002*[#  11]+0.002*[#  12]+0.002*[#  13]
    |psi|^2 = 0.998
==== e(  14) =     8.47923 eV ==== 
     psi = 0.216*[#  18]+0.216*[#  21]+0.083*[#  28]+0.083*[#  29]+0.083*[#  30]
          +0.083*[#  32]+0.083*[#  33]+0.083*[#  34]+0.021*[#  19]+0.021*[#  20]
          +0.021*[#  22]+0.002*[#  11]+0.002*[#  12]+0.002*[#  13]
    |psi|^2 = 0.998
==== e(  15) =     9.31494 eV ==== 
     psi = 0.125*[#  28]+0.125*[#  29]+0.125*[#  30]+0.125*[#  32]+0.125*[#  33]
          +0.125*[#  34]+0.100*[#   5]+0.100*[#   8]+0.012*[#   6]+0.012*[#   7]
          +0.012*[#   9]+0.003*[#  24]+0.003*[#  25]+0.003*[#  26]
    |psi|^2 = 0.996
==== e(  16) =     9.31494 eV ==== 
     psi = 0.125*[#  28]+0.125*[#  29]+0.125*[#  30]+0.125*[#  32]+0.125*[#  33]
          +0.125*[#  34]+0.100*[#   5]+0.100*[#   8]+0.012*[#   6]+0.012*[#   7]
          +0.012*[#   9]+0.003*[#  24]+0.003*[#  25]+0.003*[#  26]
    |psi|^2 = 0.996
==== e(  17) =    10.93610 eV ==== 
     psi = 0.298*[#  19]+0.298*[#  20]+0.298*[#  22]+0.049*[#  18]+0.049*[#  21]
          
    |psi|^2 = 0.998
==== e(  18) =    10.93610 eV ==== 
     psi = 0.298*[#  19]+0.298*[#  20]+0.298*[#  22]+0.049*[#  18]+0.049*[#  21]
          
    |psi|^2 = 0.998
==== e(  19) =    11.30021 eV ==== 
     psi = 0.268*[#  19]+0.268*[#  20]+0.268*[#  22]+0.026*[#  23]+0.021*[#  28]
          +0.021*[#  29]+0.021*[#  30]+0.021*[#  32]+0.021*[#  33]+0.021*[#  34]
          +0.011*[#  27]+0.011*[#  31]+0.005*[#  11]+0.005*[#  12]+0.005*[#  13]
          +0.001*[#  14]
    |psi|^2 = 0.996
==== e(  20) =    12.84351 eV ==== 
     psi = 0.234*[#  18]+0.234*[#  21]+0.080*[#  28]+0.080*[#  29]+0.080*[#  30]
          +0.080*[#  32]+0.080*[#  33]+0.080*[#  34]+0.013*[#  19]+0.013*[#  20]
          +0.013*[#  22]+0.004*[#  11]+0.004*[#  12]+0.004*[#  13]
    |psi|^2 = 0.998
==== e(  21) =    12.84351 eV ==== 
     psi = 0.234*[#  18]+0.234*[#  21]+0.080*[#  28]+0.080*[#  29]+0.080*[#  30]
          +0.080*[#  32]+0.080*[#  33]+0.080*[#  34]+0.013*[#  19]+0.013*[#  20]
          +0.013*[#  22]+0.004*[#  11]+0.004*[#  12]+0.004*[#  13]
    |psi|^2 = 0.998
==== e(  22) =    13.20166 eV ==== 
     psi = 0.311*[#   6]+0.311*[#   7]+0.311*[#   9]+0.021*[#   5]+0.021*[#   8]
          +0.002*[#  28]+0.002*[#  29]+0.002*[#  30]+0.002*[#  32]+0.002*[#  33]
          +0.002*[#  34]+0.001*[#  24]+0.001*[#  25]+0.001*[#  26]
    |psi|^2 = 0.993
==== e(  23) =    13.20166 eV ==== 
     psi = 0.311*[#   6]+0.311*[#   7]+0.311*[#   9]+0.021*[#   5]+0.021*[#   8]
          +0.002*[#  28]+0.002*[#  29]+0.002*[#  30]+0.002*[#  32]+0.002*[#  33]
          +0.002*[#  34]+0.001*[#  24]+0.001*[#  25]+0.001*[#  26]
    |psi|^2 = 0.993
==== e(  24) =    13.26019 eV ==== 
     psi = 0.289*[#   6]+0.289*[#   7]+0.289*[#   9]+0.010*[#  27]+0.010*[#  28]
          +0.010*[#  29]+0.010*[#  30]+0.010*[#  31]+0.010*[#  32]+0.010*[#  33]
          +0.010*[#  34]+0.010*[#  10]+0.009*[#  24]+0.009*[#  25]+0.009*[#  26]
          +0.001*[#   1]
    |psi|^2 = 0.988
==== e(  25) =    14.97549 eV ==== 
     psi = 0.375*[#   5]+0.375*[#   8]+0.036*[#  28]+0.036*[#  29]+0.036*[#  30]
          +0.036*[#  32]+0.036*[#  33]+0.036*[#  34]+0.006*[#   6]+0.006*[#   7]
          +0.006*[#   9]+0.004*[#  24]+0.004*[#  25]+0.004*[#  26]
    |psi|^2 = 0.997
==== e(  26) =    14.97549 eV ==== 
     psi = 0.375*[#   5]+0.375*[#   8]+0.036*[#  28]+0.036*[#  29]+0.036*[#  30]
          +0.036*[#  32]+0.036*[#  33]+0.036*[#  34]+0.006*[#   6]+0.006*[#   7]
          +0.006*[#   9]+0.004*[#  24]+0.004*[#  25]+0.004*[#  26]
    |psi|^2 = 0.997
==== e(  27) =    17.20501 eV ==== 
     psi = 0.223*[#  23]+0.123*[#  27]+0.123*[#  31]+0.105*[#  11]+0.105*[#  12]
          +0.105*[#  13]+0.032*[#  28]+0.032*[#  29]+0.032*[#  30]+0.032*[#  32]
          +0.032*[#  33]+0.032*[#  34]+0.006*[#  14]+0.002*[#  19]+0.002*[#  20]
          +0.002*[#  22]
    |psi|^2 = 0.991
==== e(  28) =    17.43062 eV ==== 
     psi = 0.207*[#  10]+0.124*[#  27]+0.124*[#  31]+0.109*[#  24]+0.109*[#  25]
          +0.109*[#  26]+0.031*[#  28]+0.031*[#  29]+0.031*[#  30]+0.031*[#  32]
          +0.031*[#  33]+0.031*[#  34]+0.007*[#   1]+0.005*[#   6]+0.005*[#   7]
          +0.005*[#   9]
    |psi|^2 = 0.992
==== e(  29) =    25.08958 eV ==== 
     psi = 0.353*[#  23]+0.084*[#  11]+0.084*[#  12]+0.084*[#  13]+0.015*[#  14]
          +0.008*[#  28]+0.008*[#  29]+0.008*[#  30]+0.008*[#  32]+0.008*[#  33]
          +0.008*[#  34]+0.004*[#  27]+0.004*[#  31]+0.003*[#  19]+0.003*[#  20]
          +0.003*[#  22]
    |psi|^2 = 0.684
==== e(  30) =    25.37479 eV ==== 
     psi = 0.377*[#  10]+0.082*[#  24]+0.082*[#  25]+0.082*[#  26]+0.014*[#   1]
          +0.008*[#   6]+0.008*[#   7]+0.008*[#   9]+0.008*[#  28]+0.008*[#  29]
          +0.008*[#  30]+0.008*[#  32]+0.008*[#  33]+0.008*[#  34]+0.003*[#  27]
          +0.003*[#  31]
    |psi|^2 = 0.712
==== e(  31) =    29.14190 eV ==== 
     psi = 0.271*[#  24]+0.271*[#  25]+0.271*[#  26]+0.002*[#   5]+0.002*[#   6]
          +0.002*[#   7]+0.002*[#   8]+0.002*[#   9]+0.002*[#  28]+0.002*[#  29]
          +0.002*[#  30]+0.002*[#  32]+0.002*[#  33]+0.002*[#  34]+0.002*[#  15]
          +0.002*[#  16]+0.002*[#  17]
    |psi|^2 = 0.842
==== e(  32) =    29.14190 eV ==== 
     psi = 0.271*[#  24]+0.271*[#  25]+0.271*[#  26]+0.002*[#   5]+0.002*[#   6]
          +0.002*[#   7]+0.002*[#   8]+0.002*[#   9]+0.002*[#  28]+0.002*[#  29]
          +0.002*[#  30]+0.002*[#  32]+0.002*[#  33]+0.002*[#  34]+0.002*[#  15]
          +0.002*[#  16]+0.002*[#  17]
    |psi|^2 = 0.842
==== e(  33) =    29.34579 eV ==== 
     psi = 0.257*[#  11]+0.257*[#  12]+0.257*[#  13]+0.002*[#  28]+0.002*[#  29]
          +0.002*[#  30]+0.002*[#  32]+0.002*[#  33]+0.002*[#  34]+0.001*[#   2]
          +0.001*[#   3]+0.001*[#   4]+0.001*[#  19]+0.001*[#  20]+0.001*[#  22]
          
    |psi|^2 = 0.789
==== e(  34) =    29.34579 eV ==== 
     psi = 0.257*[#  11]+0.257*[#  12]+0.257*[#  13]+0.002*[#  28]+0.002*[#  29]
          +0.002*[#  30]+0.002*[#  32]+0.002*[#  33]+0.002*[#  34]+0.001*[#   2]
          +0.001*[#   3]+0.001*[#   4]+0.001*[#  19]+0.001*[#  20]+0.001*[#  22]
          
    |psi|^2 = 0.789
==== e(  35) =    33.01068 eV ==== 
     psi = 0.122*[#  23]+0.040*[#  11]+0.040*[#  12]+0.040*[#  13]+0.006*[#  14]
          +0.003*[#  27]+0.003*[#  31]+0.002*[#  28]+0.002*[#  29]+0.002*[#  30]
          +0.002*[#  32]+0.002*[#  33]+0.002*[#  34]
    |psi|^2 = 0.266
==== e(  36) =    33.05718 eV ==== 
     psi = 0.121*[#  10]+0.034*[#  24]+0.034*[#  25]+0.034*[#  26]+0.005*[#   1]
          +0.002*[#  27]+0.002*[#  31]+0.002*[#  28]+0.002*[#  29]+0.002*[#  30]
          +0.002*[#  32]+0.002*[#  33]+0.002*[#  34]
    |psi|^2 = 0.246
==== e(  37) =    34.80480 eV ==== 
     psi = 0.029*[#  11]+0.029*[#  12]+0.029*[#  13]
    |psi|^2 = 0.089
==== e(  38) =    34.80480 eV ==== 
     psi = 0.029*[#  11]+0.029*[#  12]+0.029*[#  13]
    |psi|^2 = 0.089
==== e(  39) =    35.03291 eV ==== 
     psi = 0.021*[#  24]+0.021*[#  25]+0.021*[#  26]+0.001*[#   6]+0.001*[#   7]
          +0.001*[#   9]
    |psi|^2 = 0.070
==== e(  40) =    35.03291 eV ==== 
     psi = 0.021*[#  24]+0.021*[#  25]+0.021*[#  26]+0.001*[#   6]+0.001*[#   7]
          +0.001*[#   9]
    |psi|^2 = 0.070

Lowdin Charges: 

     Atom #   1: total charge =  16.6301, s =  2.3375, p =  6.9268, d =  7.3658, 
                 spin up      =   9.5408, s =  1.1675, 
                 spin up      =   9.5408, p =  3.4597, pz=  1.1532, px=  1.1532, py=  1.1532, 
                 spin up      =   9.5408, d =  4.9136, dz2=  0.9699, dxz=  0.9912, dyz=  0.9912, dx2-y2=  0.9699, dxy=  0.9912, 
                 spin down    =   7.0893, s =  1.1700, 
                 spin down    =   7.0893, p =  3.4671, pz=  1.1557, px=  1.1557, py=  1.1557, 
                 spin down    =   7.0893, d =  2.4522, dz2=  0.2270, dxz=  0.6661, dyz=  0.6661, dx2-y2=  0.2270, dxy=  0.6661, 
                 polarization =   2.4515, s = -0.0025, p = -0.0073, d =  2.4613, 
     Atom #   2: total charge =  16.6297, s =  2.3375, p =  6.9268, d =  7.3654, 
                 spin up      =   7.0889, s =  1.1700, 
                 spin up      =   7.0889, p =  3.4671, pz=  1.1557, px=  1.1557, py=  1.1557, 
                 spin up      =   7.0889, d =  2.4518, dz2=  0.2269, dxz=  0.6660, dyz=  0.6660, dx2-y2=  0.2269, dxy=  0.6660, 
                 spin down    =   9.5408, s =  1.1675, 
                 spin down    =   9.5408, p =  3.4597, pz=  1.1532, px=  1.1532, py=  1.1532, 
                 spin down    =   9.5408, d =  4.9136, dz2=  0.9699, dxz=  0.9912, dyz=  0.9912, dx2-y2=  0.9699, dxy=  0.9912, 
                 polarization =  -2.4519, s =  0.0025, p =  0.0073, d = -2.4618, 
     Atom #   3: total charge =   6.3284, s =  1.6330, p =  4.6955, d =  0.0000, 
                 spin up      =   3.1642, s =  0.8165, 
                 spin up      =   3.1642, p =  2.3477, pz=  0.7826, px=  0.7826, py=  0.7826, 
                 spin up      =   3.1642, d =  0.0000, dz2=  0.0000, dxz=  0.0000, dyz=  0.0000, dx2-y2=  0.0000, dxy=  0.0000, 
                 spin down    =   3.1642, s =  0.8165, 
                 spin down    =   3.1642, p =  2.3477, pz=  0.7826, px=  0.7826, py=  0.7826, 
                 spin down    =   3.1642, d =  0.0000, dz2=  0.0000, dxz=  0.0000, dyz=  0.0000, dx2-y2=  0.0000, dxy=  0.0000, 
                 polarization =  -0.0000, s = -0.0000, p = -0.0000, d =  0.0000, 
     Atom #   4: total charge =   6.3284, s =  1.6330, p =  4.6955, d =  0.0000, 
                 spin up      =   3.1642, s =  0.8165, 
                 spin up      =   3.1642, p =  2.3477, pz=  0.7826, px=  0.7826, py=  0.7826, 
                 spin up      =   3.1642, d =  0.0000, dz2=  0.0000, dxz=  0.0000, dyz=  0.0000, dx2-y2=  0.0000, dxy=  0.0000, 
                 spin down    =   3.1642, s =  0.8165, 
                 spin down    =   3.1642, p =  2.3477, pz=  0.7826, px=  0.7826, py=  0.7826, 
                 spin down    =   3.1642, d =  0.0000, dz2=  0.0000, dxz=  0.0000, dyz=  0.0000, dx2-y2=  0.0000, dxy=  0.0000, 
                 polarization =  -0.0000, s = -0.0000, p = -0.0000, d =  0.0000, 
     Spilling Parameter:   0.0018
 
     PROJWFC      :      1.52s CPU      1.80s WALL

 
   This run was terminated on:  14:55:34   7Jun2021            

=------------------------------------------------------------------------------=
   JOB DONE.
=------------------------------------------------------------------------------=
