
     Program PROJWFC v.7.1 starts on 18Oct2022 at  8:28:49 

     This program is part of the open-source Quantum ESPRESSO suite
     for quantum simulation of materials; please cite
         "P. Giannozzi et al., J. Phys.:Condens. Matter 21 395502 (2009);
         "P. Giannozzi et al., J. Phys.:Condens. Matter 29 465901 (2017);
         "P. Giannozzi et al., J. Chem. Phys. 152 154105 (2020);
          URL http://www.quantum-espresso.org", 
     in publications or presentations arising from this work. More details at
     http://www.quantum-espresso.org/quote

     Parallel version (MPI), running on     1 processors

     MPI processes distributed on     1 nodes
     317 MiB available memory on the printing compute node when the environment starts
 

     Reading xml data from directory:

     ../out/kc.save/

     IMPORTANT: XC functional enforced from input :
     Exchange-correlation= PW
                           (   1   4   0   0   0   0   0)
     Any further DFT definition will be discarded
     Please, verify this is what you really want

 
     G-vector sticks info
     --------------------
     sticks:   dense  smooth     PW     G-vecs:    dense   smooth      PW
     Sum         511     511    163                15291    15291    2875
 
     Using Slab Decomposition
 

     Check: negative core charge=   -0.000271

     Gaussian broadening (read from input): ngauss,degauss=   0    0.020000


     Calling projwave .... 
     Subspace diagonalization in iterative solution of the eigenvalue problem:
     a serial algorithm will be used

 
  Problem Sizes 
  natomwfc =           28
  nbnd     =           52
  nkstot   =          128
  npwx     =         1934
  nkb      =           62
 

     Atomic states used for projection
     (read from pseudopotential files):

     state #   1: atom   1 (Zn ), wfc  1 (l=0 m= 1)
     state #   2: atom   1 (Zn ), wfc  2 (l=1 m= 1)
     state #   3: atom   1 (Zn ), wfc  2 (l=1 m= 2)
     state #   4: atom   1 (Zn ), wfc  2 (l=1 m= 3)
     state #   5: atom   1 (Zn ), wfc  3 (l=2 m= 1)
     state #   6: atom   1 (Zn ), wfc  3 (l=2 m= 2)
     state #   7: atom   1 (Zn ), wfc  3 (l=2 m= 3)
     state #   8: atom   1 (Zn ), wfc  3 (l=2 m= 4)
     state #   9: atom   1 (Zn ), wfc  3 (l=2 m= 5)
     state #  10: atom   1 (Zn ), wfc  4 (l=0 m= 1)
     state #  11: atom   2 (Zn ), wfc  1 (l=0 m= 1)
     state #  12: atom   2 (Zn ), wfc  2 (l=1 m= 1)
     state #  13: atom   2 (Zn ), wfc  2 (l=1 m= 2)
     state #  14: atom   2 (Zn ), wfc  2 (l=1 m= 3)
     state #  15: atom   2 (Zn ), wfc  3 (l=2 m= 1)
     state #  16: atom   2 (Zn ), wfc  3 (l=2 m= 2)
     state #  17: atom   2 (Zn ), wfc  3 (l=2 m= 3)
     state #  18: atom   2 (Zn ), wfc  3 (l=2 m= 4)
     state #  19: atom   2 (Zn ), wfc  3 (l=2 m= 5)
     state #  20: atom   2 (Zn ), wfc  4 (l=0 m= 1)
     state #  21: atom   3 (O  ), wfc  1 (l=0 m= 1)
     state #  22: atom   3 (O  ), wfc  2 (l=1 m= 1)
     state #  23: atom   3 (O  ), wfc  2 (l=1 m= 2)
     state #  24: atom   3 (O  ), wfc  2 (l=1 m= 3)
     state #  25: atom   4 (O  ), wfc  1 (l=0 m= 1)
     state #  26: atom   4 (O  ), wfc  2 (l=1 m= 1)
     state #  27: atom   4 (O  ), wfc  2 (l=1 m= 2)
     state #  28: atom   4 (O  ), wfc  2 (l=1 m= 3)

 k =   0.0000000000  0.0000000000  0.0000000000
==== e(   1) =  -115.91964 eV ==== 
     psi = 0.617*[#  11]+0.378*[#   1]+0.002*[#  10]+0.002*[#  20]
    |psi|^2 = 1.000
==== e(   2) =  -115.91951 eV ==== 
     psi = 0.618*[#   1]+0.378*[#  11]+0.001*[#  22]+0.001*[#  26]
    |psi|^2 = 1.000
==== e(   3) =   -69.58680 eV ==== 
     psi = 0.500*[#  14]+0.499*[#   4]
    |psi|^2 = 1.000
==== e(   4) =   -69.58676 eV ==== 
     psi = 0.500*[#  13]+0.499*[#   3]
    |psi|^2 = 1.000
==== e(   5) =   -69.58436 eV ==== 
     psi = 0.502*[#   2]+0.496*[#  12]
    |psi|^2 = 1.000
==== e(   6) =   -69.55497 eV ==== 
     psi = 0.500*[#   4]+0.500*[#  14]
    |psi|^2 = 1.000
==== e(   7) =   -69.55489 eV ==== 
     psi = 0.500*[#   3]+0.500*[#  13]
    |psi|^2 = 1.000
==== e(   8) =   -69.53208 eV ==== 
     psi = 0.503*[#  12]+0.497*[#   2]
    |psi|^2 = 1.000
==== e(   9) =    -8.57141 eV ==== 
     psi = 0.339*[#  21]+0.339*[#  25]+0.159*[#  10]+0.159*[#  20]+0.001*[#   1]
          +0.001*[#  11]
    |psi|^2 = 0.998
==== e(  10) =    -7.80697 eV ==== 
     psi = 0.446*[#  21]+0.446*[#  25]+0.036*[#  10]+0.036*[#  20]+0.016*[#   5]
          +0.016*[#  15]
    |psi|^2 = 0.996
==== e(  11) =     3.21612 eV ==== 
     psi = 0.290*[#   9]+0.290*[#  19]+0.109*[#  23]+0.109*[#  27]+0.100*[#   6]
          +0.100*[#  16]
    |psi|^2 = 0.999
==== e(  12) =     3.21698 eV ==== 
     psi = 0.290*[#   8]+0.290*[#  18]+0.109*[#  24]+0.109*[#  28]+0.100*[#   7]
          +0.100*[#  17]
    |psi|^2 = 0.999
==== e(  13) =     3.39919 eV ==== 
     psi = 0.394*[#   5]+0.394*[#  15]+0.105*[#  22]+0.105*[#  26]
    |psi|^2 = 0.999
==== e(  14) =     3.41250 eV ==== 
     psi = 0.375*[#   9]+0.375*[#  19]+0.107*[#  23]+0.107*[#  27]+0.017*[#   6]
          +0.017*[#  16]
    |psi|^2 = 0.998
==== e(  15) =     3.41293 eV ==== 
     psi = 0.375*[#   8]+0.375*[#  18]+0.107*[#  24]+0.107*[#  28]+0.017*[#   7]
          +0.017*[#  17]
    |psi|^2 = 0.998
==== e(  16) =     3.61925 eV ==== 
     psi = 0.348*[#  22]+0.348*[#  26]+0.067*[#  10]+0.067*[#  20]+0.056*[#   5]
          +0.056*[#  15]+0.008*[#  21]+0.008*[#  25]
    |psi|^2 = 0.963
==== e(  17) =     4.31547 eV ==== 
     psi = 0.367*[#   6]+0.367*[#  16]+0.133*[#   9]+0.133*[#  19]
    |psi|^2 = 0.999
==== e(  18) =     4.31574 eV ==== 
     psi = 0.367*[#   7]+0.367*[#  17]+0.132*[#   8]+0.132*[#  18]
    |psi|^2 = 0.999
==== e(  19) =     4.42293 eV ==== 
     psi = 0.479*[#   7]+0.479*[#  17]+0.020*[#   8]+0.020*[#  18]
    |psi|^2 = 1.000
==== e(  20) =     4.42314 eV ==== 
     psi = 0.479*[#   6]+0.479*[#  16]+0.021*[#   9]+0.021*[#  19]
    |psi|^2 = 1.000
==== e(  21) =     4.99174 eV ==== 
     psi = 0.427*[#   5]+0.427*[#  15]+0.047*[#  22]+0.047*[#  26]+0.018*[#  10]
          +0.018*[#  20]+0.008*[#  21]+0.008*[#  25]
    |psi|^2 = 1.000
==== e(  22) =     8.47934 eV ==== 
     psi = 0.382*[#  23]+0.382*[#  27]+0.104*[#   9]+0.104*[#  19]+0.004*[#   6]
          +0.004*[#  16]
    |psi|^2 = 0.980
==== e(  23) =     8.48050 eV ==== 
     psi = 0.382*[#  24]+0.382*[#  28]+0.104*[#   8]+0.104*[#  18]+0.004*[#   7]
          +0.004*[#  17]
    |psi|^2 = 0.980
==== e(  24) =     9.26769 eV ==== 
     psi = 0.386*[#  23]+0.386*[#  27]+0.077*[#   9]+0.077*[#  19]+0.032*[#   6]
          +0.032*[#  16]
    |psi|^2 = 0.992
==== e(  25) =     9.26772 eV ==== 
     psi = 0.387*[#  24]+0.387*[#  28]+0.077*[#   8]+0.077*[#  18]+0.032*[#   7]
          +0.032*[#  17]
    |psi|^2 = 0.992
==== e(  26) =     9.28768 eV ==== 
     psi = 0.389*[#  22]+0.389*[#  26]+0.105*[#   5]+0.105*[#  15]+0.002*[#  10]
          +0.002*[#  20]
    |psi|^2 = 0.992
==== e(  27) =     9.97696 eV ==== 
     psi = 0.335*[#  10]+0.335*[#  20]+0.158*[#  21]+0.158*[#  25]+0.002*[#  22]
          +0.002*[#  26]
    |psi|^2 = 0.994
==== e(  28) =    14.28237 eV ==== 
     psi = 0.289*[#  10]+0.289*[#  20]+0.037*[#  22]+0.037*[#  26]+0.033*[#  21]
          +0.033*[#  25]
    |psi|^2 = 0.720
==== e(  29) =    17.45632 eV ==== 
     psi = 0.083*[#  10]+0.083*[#  20]+0.061*[#  22]+0.061*[#  26]+0.002*[#  21]
          +0.002*[#  25]+0.001*[#   5]+0.001*[#  15]
    |psi|^2 = 0.296
==== e(  30) =    21.99587 eV ==== 
 
    |psi|^2 = 0.001
==== e(  31) =    21.99712 eV ==== 
 
    |psi|^2 = 0.001
==== e(  32) =    23.22126 eV ==== 
 
    |psi|^2 = 0.001
==== e(  33) =    23.25154 eV ==== 
     psi = 0.007*[#  24]+0.007*[#  28]
    |psi|^2 = 0.014
==== e(  34) =    23.25495 eV ==== 
     psi = 0.007*[#  23]+0.007*[#  27]
    |psi|^2 = 0.014
==== e(  35) =    25.70961 eV ==== 
 
    |psi|^2 = 0.001
==== e(  36) =    27.49299 eV ==== 
 
    |psi|^2 = 0.001
==== e(  37) =    27.49439 eV ==== 
 
    |psi|^2 = 0.001
==== e(  38) =    29.03037 eV ==== 
 
    |psi|^2 = 0.001
==== e(  39) =    29.11252 eV ==== 
 
    |psi|^2 = 0.000
==== e(  40) =    29.11366 eV ==== 
 
    |psi|^2 = 0.000
==== e(  41) =    30.26364 eV ==== 
 
    |psi|^2 = 0.002
==== e(  42) =    32.20935 eV ==== 
     psi = 0.004*[#  22]+0.004*[#  26]+0.002*[#  10]+0.002*[#  20]
    |psi|^2 = 0.012
==== e(  43) =    34.19711 eV ==== 
     psi = 0.002*[#  23]+0.002*[#  27]
    |psi|^2 = 0.005
==== e(  44) =    34.20076 eV ==== 
     psi = 0.002*[#  24]+0.002*[#  28]
    |psi|^2 = 0.005
==== e(  45) =    36.77934 eV ==== 
     psi = 0.003*[#  10]+0.003*[#  20]+0.001*[#  21]+0.001*[#  25]
    |psi|^2 = 0.009
==== e(  46) =    37.75131 eV ==== 
     psi = 0.003*[#  24]+0.003*[#  28]
    |psi|^2 = 0.006
==== e(  47) =    37.75347 eV ==== 
     psi = 0.003*[#  23]+0.003*[#  27]
    |psi|^2 = 0.006
==== e(  48) =    38.03969 eV ==== 
     psi = 0.002*[#  22]+0.002*[#  26]
    |psi|^2 = 0.005
==== e(  49) =    40.35771 eV ==== 
 
    |psi|^2 = 0.000
==== e(  50) =    40.36021 eV ==== 
 
    |psi|^2 = 0.000
==== e(  51) =    43.82963 eV ==== 
 
    |psi|^2 = 0.000
==== e(  52) =    43.83234 eV ==== 
 
    |psi|^2 = 0.000

 k =   0.0000000000  0.0000000000 -0.1560513011
==== e(   1) =  -115.91961 eV ==== 
     psi = 0.582*[#  11]+0.414*[#   1]+0.002*[#  10]+0.002*[#  20]
    |psi|^2 = 1.000
==== e(   2) =  -115.91942 eV ==== 
     psi = 0.582*[#   1]+0.415*[#  11]+0.001*[#  22]+0.001*[#  26]
    |psi|^2 = 1.000
==== e(   3) =   -69.58710 eV ==== 
     psi = 0.506*[#   2]+0.493*[#  12]
    |psi|^2 = 1.000
==== e(   4) =   -69.56600 eV ==== 
     psi = 0.506*[#  12]+0.493*[#   2]
    |psi|^2 = 1.000
==== e(   5) =   -69.53020 eV ==== 
     psi = 0.502*[#  14]+0.497*[#   4]
    |psi|^2 = 1.000
==== e(   6) =   -69.53017 eV ==== 
     psi = 0.502*[#  13]+0.497*[#   3]
    |psi|^2 = 1.000
==== e(   7) =   -69.52662 eV ==== 
     psi = 0.502*[#   4]+0.497*[#  14]
    |psi|^2 = 1.000
==== e(   8) =   -69.52652 eV ==== 
     psi = 0.502*[#   3]+0.497*[#  13]
    |psi|^2 = 1.000
==== e(   9) =    -8.46523 eV ==== 
     psi = 0.351*[#  21]+0.351*[#  25]+0.145*[#  10]+0.145*[#  20]+0.001*[#   5]
          +0.001*[#  15]+0.001*[#   1]+0.001*[#  11]
    |psi|^2 = 0.998
==== e(  10) =    -7.92350 eV ==== 
     psi = 0.425*[#  21]+0.425*[#  25]+0.061*[#  10]+0.061*[#  20]+0.012*[#   5]
          +0.012*[#  15]
    |psi|^2 = 0.997
==== e(  11) =     3.22832 eV ==== 
     psi = 0.373*[#   5]+0.373*[#  15]+0.113*[#  22]+0.113*[#  26]+0.012*[#  10]
          +0.012*[#  20]+0.002*[#  21]+0.002*[#  25]
    |psi|^2 = 0.999
==== e(  12) =     3.29024 eV ==== 
     psi = 0.286*[#   9]+0.286*[#  19]+0.112*[#  23]+0.112*[#  27]+0.102*[#   6]
          +0.102*[#  16]
    |psi|^2 = 0.999
==== e(  13) =     3.29101 eV ==== 
     psi = 0.286*[#   8]+0.286*[#  18]+0.112*[#  24]+0.112*[#  28]+0.102*[#   7]
          +0.102*[#  17]
    |psi|^2 = 0.999
==== e(  14) =     3.31841 eV ==== 
     psi = 0.231*[#  22]+0.231*[#  26]+0.197*[#  15]+0.196*[#   5]+0.061*[#  10]
          +0.061*[#  20]+0.004*[#  21]+0.004*[#  25]
    |psi|^2 = 0.986
==== e(  15) =     3.41968 eV ==== 
     psi = 0.355*[#   9]+0.355*[#  19]+0.110*[#  23]+0.110*[#  27]+0.033*[#   6]
          +0.033*[#  16]
    |psi|^2 = 0.998
==== e(  16) =     3.42019 eV ==== 
     psi = 0.356*[#   8]+0.356*[#  18]+0.110*[#  24]+0.110*[#  28]+0.033*[#   7]
          +0.033*[#  17]
    |psi|^2 = 0.998
==== e(  17) =     4.37687 eV ==== 
     psi = 0.368*[#   6]+0.368*[#  16]+0.132*[#   9]+0.132*[#  19]
    |psi|^2 = 0.999
==== e(  18) =     4.37701 eV ==== 
     psi = 0.368*[#   7]+0.368*[#  17]+0.132*[#   8]+0.132*[#  18]
    |psi|^2 = 0.999
==== e(  19) =     4.54109 eV ==== 
     psi = 0.455*[#   7]+0.455*[#  17]+0.045*[#   8]+0.045*[#  18]
    |psi|^2 = 1.000
==== e(  20) =     4.54127 eV ==== 
     psi = 0.455*[#   6]+0.455*[#  16]+0.045*[#   9]+0.045*[#  19]
    |psi|^2 = 1.000
==== e(  21) =     5.65030 eV ==== 
     psi = 0.289*[#   5]+0.289*[#  15]+0.151*[#  22]+0.151*[#  26]+0.028*[#  10]
          +0.028*[#  20]+0.021*[#  21]+0.021*[#  25]
    |psi|^2 = 0.979
==== e(  22) =     8.18175 eV ==== 
     psi = 0.249*[#  22]+0.249*[#  26]+0.117*[#   5]+0.117*[#  15]+0.081*[#  10]
          +0.081*[#  20]+0.048*[#  21]+0.048*[#  25]
    |psi|^2 = 0.990
==== e(  23) =     8.65833 eV ==== 
     psi = 0.380*[#  23]+0.380*[#  27]+0.099*[#   9]+0.099*[#  19]+0.011*[#   6]
          +0.011*[#  16]
    |psi|^2 = 0.982
==== e(  24) =     8.65941 eV ==== 
     psi = 0.380*[#  24]+0.380*[#  28]+0.099*[#   8]+0.099*[#  18]+0.011*[#   7]
          +0.011*[#  17]
    |psi|^2 = 0.982
==== e(  25) =     9.20390 eV ==== 
     psi = 0.383*[#  23]+0.383*[#  27]+0.082*[#   9]+0.082*[#  19]+0.030*[#   6]
          +0.030*[#  16]
    |psi|^2 = 0.990
==== e(  26) =     9.20417 eV ==== 
     psi = 0.383*[#  24]+0.383*[#  28]+0.082*[#   8]+0.082*[#  18]+0.030*[#   7]
          +0.030*[#  17]
    |psi|^2 = 0.990
==== e(  27) =    11.15199 eV ==== 
     psi = 0.258*[#  10]+0.258*[#  20]+0.130*[#  22]+0.130*[#  26]+0.097*[#  21]
          +0.097*[#  25]+0.008*[#   5]+0.008*[#  15]
    |psi|^2 = 0.989
==== e(  28) =    13.84341 eV ==== 
     psi = 0.310*[#  10]+0.310*[#  20]+0.069*[#  22]+0.069*[#  26]+0.046*[#  21]
          +0.046*[#  25]
    |psi|^2 = 0.851
==== e(  29) =    17.87974 eV ==== 
     psi = 0.042*[#  22]+0.042*[#  26]+0.036*[#  10]+0.036*[#  20]+0.002*[#  21]
          +0.002*[#  25]+0.001*[#   5]+0.001*[#  15]
    |psi|^2 = 0.162
==== e(  30) =    21.44740 eV ==== 
     psi = 0.004*[#  22]+0.004*[#  26]
    |psi|^2 = 0.008
==== e(  31) =    22.03773 eV ==== 
     psi = 0.001*[#  24]+0.001*[#  28]
    |psi|^2 = 0.003
==== e(  32) =    22.03929 eV ==== 
     psi = 0.001*[#  23]+0.001*[#  27]
    |psi|^2 = 0.003
==== e(  33) =    22.87747 eV ==== 
     psi = 0.005*[#  24]+0.005*[#  28]
    |psi|^2 = 0.012
==== e(  34) =    22.88047 eV ==== 
     psi = 0.005*[#  23]+0.005*[#  27]
    |psi|^2 = 0.012
==== e(  35) =    26.26572 eV ==== 
 
    |psi|^2 = 0.003
==== e(  36) =    28.14681 eV ==== 
 
    |psi|^2 = 0.002
==== e(  37) =    28.14842 eV ==== 
 
    |psi|^2 = 0.002
==== e(  38) =    28.52304 eV ==== 
     psi = 0.002*[#  22]+0.002*[#  26]
    |psi|^2 = 0.006
==== e(  39) =    29.75722 eV ==== 
     psi = 0.001*[#  24]+0.001*[#  28]
    |psi|^2 = 0.002
==== e(  40) =    29.75792 eV ==== 
     psi = 0.001*[#  23]+0.001*[#  27]
    |psi|^2 = 0.002
==== e(  41) =    32.37436 eV ==== 
     psi = 0.002*[#  22]+0.002*[#  26]+0.002*[#  10]+0.002*[#  20]
    |psi|^2 = 0.008
==== e(  42) =    32.51637 eV ==== 
 
    |psi|^2 = 0.001
==== e(  43) =    33.61206 eV ==== 
 
    |psi|^2 = 0.002
==== e(  44) =    33.61444 eV ==== 
 
    |psi|^2 = 0.002
==== e(  45) =    36.63082 eV ==== 
     psi = 0.002*[#  24]+0.002*[#  28]
    |psi|^2 = 0.003
==== e(  46) =    36.63324 eV ==== 
     psi = 0.002*[#  23]+0.002*[#  27]
    |psi|^2 = 0.003
==== e(  47) =    36.80061 eV ==== 
     psi = 0.001*[#  22]+0.001*[#  26]
    |psi|^2 = 0.004
==== e(  48) =    38.03136 eV ==== 
     psi = 0.001*[#  10]+0.001*[#  20]
    |psi|^2 = 0.006
==== e(  49) =    40.67961 eV ==== 
     psi = 0.001*[#  23]+0.001*[#  27]
    |psi|^2 = 0.002
==== e(  50) =    40.68164 eV ==== 
     psi = 0.001*[#  24]+0.001*[#  28]
    |psi|^2 = 0.002
==== e(  51) =    41.93289 eV ==== 
     psi = 0.001*[#  23]+0.001*[#  27]
    |psi|^2 = 0.003
==== e(  52) =    41.93328 eV ==== 
     psi = 0.001*[#  24]+0.001*[#  28]
    |psi|^2 = 0.003

 k =   0.0000000000  0.0000000000  0.3121026021
==== e(   1) =  -115.91957 eV ==== 
     psi = 0.997*[#  11]
    |psi|^2 = 1.000
==== e(   2) =  -115.91954 eV ==== 
     psi = 0.997*[#   1]
    |psi|^2 = 1.000
==== e(   3) =   -69.60398 eV ==== 
     psi = 0.999*[#   2]
    |psi|^2 = 1.000
==== e(   4) =   -69.60370 eV ==== 
     psi = 0.999*[#  12]
    |psi|^2 = 1.000
==== e(   5) =   -69.53476 eV ==== 
     psi = 0.999*[#  14]
    |psi|^2 = 1.000
==== e(   6) =   -69.53474 eV ==== 
     psi = 0.999*[#   4]
    |psi|^2 = 1.000
==== e(   7) =   -69.53470 eV ==== 
     psi = 0.999*[#  13]
    |psi|^2 = 1.000
==== e(   8) =   -69.53468 eV ==== 
     psi = 0.999*[#   3]
    |psi|^2 = 1.000
==== e(   9) =    -8.20035 eV ==== 
     psi = 0.617*[#  21]+0.213*[#  20]+0.150*[#  25]+0.010*[#   5]+0.003*[#  10]
          +0.002*[#  15]+0.001*[#  11]+0.001*[#  26]
    |psi|^2 = 0.998
==== e(  10) =    -8.20034 eV ==== 
     psi = 0.617*[#  25]+0.213*[#  10]+0.150*[#  21]+0.010*[#  15]+0.003*[#  20]
          +0.002*[#   5]+0.001*[#   1]+0.001*[#  22]
    |psi|^2 = 0.998
==== e(  11) =     3.10759 eV ==== 
     psi = 0.610*[#   5]+0.171*[#  26]+0.133*[#  22]+0.072*[#  20]+0.006*[#  21]
          +0.002*[#  10]
    |psi|^2 = 0.996
==== e(  12) =     3.10767 eV ==== 
     psi = 0.610*[#  15]+0.171*[#  22]+0.133*[#  26]+0.072*[#  10]+0.006*[#  25]
          +0.002*[#  20]
    |psi|^2 = 0.996
==== e(  13) =     3.34160 eV ==== 
     psi = 0.413*[#  19]+0.215*[#   9]+0.143*[#  23]+0.131*[#   6]+0.078*[#  27]
          +0.018*[#  16]
    |psi|^2 = 0.999
==== e(  14) =     3.34160 eV ==== 
     psi = 0.413*[#   9]+0.215*[#  19]+0.143*[#  27]+0.131*[#  16]+0.078*[#  23]
          +0.018*[#   6]
    |psi|^2 = 0.999
==== e(  15) =     3.34228 eV ==== 
     psi = 0.415*[#  18]+0.215*[#   8]+0.143*[#  24]+0.130*[#   7]+0.078*[#  28]
          +0.018*[#  17]
    |psi|^2 = 0.999
==== e(  16) =     3.34228 eV ==== 
     psi = 0.415*[#   8]+0.215*[#  18]+0.143*[#  28]+0.130*[#  17]+0.078*[#  24]
          +0.018*[#   7]
    |psi|^2 = 0.999
==== e(  17) =     4.42537 eV ==== 
     psi = 0.809*[#   7]+0.133*[#   8]+0.057*[#  18]
    |psi|^2 = 0.999
==== e(  18) =     4.42537 eV ==== 
     psi = 0.809*[#  17]+0.133*[#  18]+0.057*[#   8]
    |psi|^2 = 0.999
==== e(  19) =     4.42543 eV ==== 
     psi = 0.808*[#   6]+0.134*[#   9]+0.057*[#  19]
    |psi|^2 = 0.999
==== e(  20) =     4.42544 eV ==== 
     psi = 0.808*[#  16]+0.134*[#  19]+0.057*[#   9]
    |psi|^2 = 0.999
==== e(  21) =     6.91780 eV ==== 
     psi = 0.359*[#   5]+0.253*[#  22]+0.165*[#  26]+0.094*[#  20]+0.046*[#  25]
          +0.031*[#  21]+0.021*[#  10]+0.012*[#  15]
    |psi|^2 = 0.982
==== e(  22) =     6.91788 eV ==== 
     psi = 0.359*[#  15]+0.253*[#  26]+0.165*[#  22]+0.094*[#  10]+0.046*[#  21]
          +0.031*[#  25]+0.021*[#  20]+0.012*[#   5]
    |psi|^2 = 0.982
==== e(  23) =     8.92491 eV ==== 
     psi = 0.474*[#  23]+0.289*[#  27]+0.112*[#  19]+0.067*[#   9]+0.037*[#   6]
          +0.005*[#  16]
    |psi|^2 = 0.985
==== e(  24) =     8.92491 eV ==== 
     psi = 0.474*[#  27]+0.289*[#  23]+0.112*[#   9]+0.067*[#  19]+0.037*[#  16]
          +0.005*[#   6]
    |psi|^2 = 0.985
==== e(  25) =     8.92560 eV ==== 
     psi = 0.474*[#  24]+0.289*[#  28]+0.112*[#  18]+0.067*[#   8]+0.037*[#   7]
          +0.005*[#  17]
    |psi|^2 = 0.985
==== e(  26) =     8.92560 eV ==== 
     psi = 0.474*[#  28]+0.289*[#  24]+0.112*[#   8]+0.067*[#  18]+0.037*[#  17]
          +0.005*[#   7]
    |psi|^2 = 0.985
==== e(  27) =    12.66247 eV ==== 
     psi = 0.358*[#  20]+0.219*[#  10]+0.188*[#  22]+0.101*[#  25]+0.047*[#  26]
          +0.043*[#  21]+0.004*[#   5]
    |psi|^2 = 0.961
==== e(  28) =    12.66251 eV ==== 
     psi = 0.358*[#  10]+0.219*[#  20]+0.188*[#  26]+0.101*[#  21]+0.047*[#  22]
          +0.043*[#  25]+0.004*[#  15]
    |psi|^2 = 0.961
==== e(  29) =    19.19608 eV ==== 
     psi = 0.028*[#  26]+0.009*[#  10]+0.004*[#  22]+0.001*[#  15]+0.001*[#  25]
          
    |psi|^2 = 0.044
==== e(  30) =    19.19613 eV ==== 
     psi = 0.028*[#  22]+0.009*[#  20]+0.004*[#  26]+0.001*[#   5]+0.001*[#  21]
          
    |psi|^2 = 0.044
==== e(  31) =    22.29629 eV ==== 
     psi = 0.006*[#  24]
    |psi|^2 = 0.007
==== e(  32) =    22.29631 eV ==== 
     psi = 0.006*[#  28]
    |psi|^2 = 0.007
==== e(  33) =    22.29855 eV ==== 
     psi = 0.006*[#  23]
    |psi|^2 = 0.007
==== e(  34) =    22.29856 eV ==== 
     psi = 0.006*[#  27]
    |psi|^2 = 0.007
==== e(  35) =    27.29945 eV ==== 
     psi = 0.003*[#  22]+0.001*[#  25]
    |psi|^2 = 0.006
==== e(  36) =    27.29955 eV ==== 
     psi = 0.003*[#  26]+0.001*[#  21]
    |psi|^2 = 0.006
==== e(  37) =    29.51680 eV ==== 
     psi = 0.003*[#  23]
    |psi|^2 = 0.004
==== e(  38) =    29.51687 eV ==== 
     psi = 0.003*[#  27]
    |psi|^2 = 0.004
==== e(  39) =    29.51834 eV ==== 
     psi = 0.003*[#  24]
    |psi|^2 = 0.004
==== e(  40) =    29.51841 eV ==== 
     psi = 0.003*[#  28]
    |psi|^2 = 0.004
==== e(  41) =    33.69525 eV ==== 
     psi = 0.001*[#  21]
    |psi|^2 = 0.004
==== e(  42) =    33.69532 eV ==== 
     psi = 0.001*[#  25]
    |psi|^2 = 0.004
==== e(  43) =    34.26888 eV ==== 
 
    |psi|^2 = 0.001
==== e(  44) =    34.26895 eV ==== 
 
    |psi|^2 = 0.001
==== e(  45) =    34.27017 eV ==== 
 
    |psi|^2 = 0.001
==== e(  46) =    34.27024 eV ==== 
 
    |psi|^2 = 0.001
==== e(  47) =    37.69882 eV ==== 
     psi = 0.001*[#  20]
    |psi|^2 = 0.002
==== e(  48) =    37.69900 eV ==== 
     psi = 0.001*[#  10]
    |psi|^2 = 0.002
==== e(  49) =    41.09730 eV ==== 
     psi = 0.003*[#  23]
    |psi|^2 = 0.004
==== e(  50) =    41.09733 eV ==== 
     psi = 0.003*[#  27]
    |psi|^2 = 0.004
==== e(  51) =    41.09858 eV ==== 
     psi = 0.003*[#  24]
    |psi|^2 = 0.004
==== e(  52) =    41.09861 eV ==== 
     psi = 0.003*[#  28]
    |psi|^2 = 0.004

 k =   0.0000000000  0.0000000000  0.1560513011
==== e(   1) =  -115.91961 eV ==== 
     psi = 0.582*[#  11]+0.414*[#   1]+0.002*[#  10]+0.002*[#  20]
    |psi|^2 = 1.000
==== e(   2) =  -115.91942 eV ==== 
     psi = 0.582*[#   1]+0.415*[#  11]+0.001*[#  22]+0.001*[#  26]
    |psi|^2 = 1.000
==== e(   3) =   -69.58710 eV ==== 
     psi = 0.506*[#   2]+0.493*[#  12]
    |psi|^2 = 1.000
==== e(   4) =   -69.56600 eV ==== 
     psi = 0.506*[#  12]+0.493*[#   2]
    |psi|^2 = 1.000
==== e(   5) =   -69.53020 eV ==== 
     psi = 0.502*[#  14]+0.497*[#   4]
    |psi|^2 = 1.000
==== e(   6) =   -69.53017 eV ==== 
     psi = 0.502*[#  13]+0.497*[#   3]
    |psi|^2 = 1.000
==== e(   7) =   -69.52662 eV ==== 
     psi = 0.502*[#   4]+0.497*[#  14]
    |psi|^2 = 1.000
==== e(   8) =   -69.52652 eV ==== 
     psi = 0.502*[#   3]+0.497*[#  13]
    |psi|^2 = 1.000
==== e(   9) =    -8.46523 eV ==== 
     psi = 0.351*[#  21]+0.351*[#  25]+0.145*[#  10]+0.145*[#  20]+0.001*[#   5]
          +0.001*[#  15]+0.001*[#   1]+0.001*[#  11]
    |psi|^2 = 0.998
==== e(  10) =    -7.92350 eV ==== 
     psi = 0.425*[#  21]+0.425*[#  25]+0.061*[#  10]+0.061*[#  20]+0.012*[#   5]
          +0.012*[#  15]
    |psi|^2 = 0.997
==== e(  11) =     3.22832 eV ==== 
     psi = 0.373*[#   5]+0.373*[#  15]+0.113*[#  22]+0.113*[#  26]+0.012*[#  10]
          +0.012*[#  20]+0.002*[#  21]+0.002*[#  25]
    |psi|^2 = 0.999
==== e(  12) =     3.29024 eV ==== 
     psi = 0.286*[#   9]+0.286*[#  19]+0.112*[#  23]+0.112*[#  27]+0.102*[#   6]
          +0.102*[#  16]
    |psi|^2 = 0.999
==== e(  13) =     3.29101 eV ==== 
     psi = 0.286*[#   8]+0.286*[#  18]+0.112*[#  24]+0.112*[#  28]+0.102*[#   7]
          +0.102*[#  17]
    |psi|^2 = 0.999
==== e(  14) =     3.31841 eV ==== 
     psi = 0.231*[#  22]+0.231*[#  26]+0.197*[#  15]+0.196*[#   5]+0.061*[#  10]
          +0.061*[#  20]+0.004*[#  21]+0.004*[#  25]
    |psi|^2 = 0.986
==== e(  15) =     3.41968 eV ==== 
     psi = 0.355*[#   9]+0.355*[#  19]+0.110*[#  23]+0.110*[#  27]+0.033*[#   6]
          +0.033*[#  16]
    |psi|^2 = 0.998
==== e(  16) =     3.42019 eV ==== 
     psi = 0.356*[#   8]+0.356*[#  18]+0.110*[#  24]+0.110*[#  28]+0.033*[#   7]
          +0.033*[#  17]
    |psi|^2 = 0.998
==== e(  17) =     4.37687 eV ==== 
     psi = 0.368*[#   6]+0.368*[#  16]+0.132*[#   9]+0.132*[#  19]
    |psi|^2 = 0.999
==== e(  18) =     4.37701 eV ==== 
     psi = 0.368*[#   7]+0.368*[#  17]+0.132*[#   8]+0.132*[#  18]
    |psi|^2 = 0.999
==== e(  19) =     4.54109 eV ==== 
     psi = 0.455*[#   7]+0.455*[#  17]+0.045*[#   8]+0.045*[#  18]
    |psi|^2 = 1.000
==== e(  20) =     4.54127 eV ==== 
     psi = 0.455*[#   6]+0.455*[#  16]+0.045*[#   9]+0.045*[#  19]
    |psi|^2 = 1.000
==== e(  21) =     5.65030 eV ==== 
     psi = 0.289*[#   5]+0.289*[#  15]+0.151*[#  22]+0.151*[#  26]+0.028*[#  10]
          +0.028*[#  20]+0.021*[#  21]+0.021*[#  25]
    |psi|^2 = 0.979
==== e(  22) =     8.18175 eV ==== 
     psi = 0.249*[#  22]+0.249*[#  26]+0.117*[#   5]+0.117*[#  15]+0.081*[#  10]
          +0.081*[#  20]+0.048*[#  21]+0.048*[#  25]
    |psi|^2 = 0.990
==== e(  23) =     8.65833 eV ==== 
     psi = 0.380*[#  23]+0.380*[#  27]+0.099*[#   9]+0.099*[#  19]+0.011*[#   6]
          +0.011*[#  16]
    |psi|^2 = 0.982
==== e(  24) =     8.65941 eV ==== 
     psi = 0.380*[#  24]+0.380*[#  28]+0.099*[#   8]+0.099*[#  18]+0.011*[#   7]
          +0.011*[#  17]
    |psi|^2 = 0.982
==== e(  25) =     9.20390 eV ==== 
     psi = 0.383*[#  23]+0.383*[#  27]+0.082*[#   9]+0.082*[#  19]+0.030*[#   6]
          +0.030*[#  16]
    |psi|^2 = 0.990
==== e(  26) =     9.20417 eV ==== 
     psi = 0.383*[#  24]+0.383*[#  28]+0.082*[#   8]+0.082*[#  18]+0.030*[#   7]
          +0.030*[#  17]
    |psi|^2 = 0.990
==== e(  27) =    11.15199 eV ==== 
     psi = 0.258*[#  10]+0.258*[#  20]+0.130*[#  22]+0.130*[#  26]+0.097*[#  21]
          +0.097*[#  25]+0.008*[#   5]+0.008*[#  15]
    |psi|^2 = 0.989
==== e(  28) =    13.84341 eV ==== 
     psi = 0.310*[#  10]+0.310*[#  20]+0.069*[#  22]+0.069*[#  26]+0.046*[#  21]
          +0.046*[#  25]
    |psi|^2 = 0.851
==== e(  29) =    17.87974 eV ==== 
     psi = 0.042*[#  22]+0.042*[#  26]+0.036*[#  10]+0.036*[#  20]+0.002*[#  21]
          +0.002*[#  25]+0.001*[#   5]+0.001*[#  15]
    |psi|^2 = 0.162
==== e(  30) =    21.44740 eV ==== 
     psi = 0.004*[#  22]+0.004*[#  26]
    |psi|^2 = 0.008
==== e(  31) =    22.03773 eV ==== 
     psi = 0.001*[#  24]+0.001*[#  28]
    |psi|^2 = 0.003
==== e(  32) =    22.03929 eV ==== 
     psi = 0.001*[#  23]+0.001*[#  27]
    |psi|^2 = 0.003
==== e(  33) =    22.87747 eV ==== 
     psi = 0.005*[#  24]+0.005*[#  28]
    |psi|^2 = 0.012
==== e(  34) =    22.88047 eV ==== 
     psi = 0.005*[#  23]+0.005*[#  27]
    |psi|^2 = 0.012
==== e(  35) =    26.26572 eV ==== 
 
    |psi|^2 = 0.003
==== e(  36) =    28.14681 eV ==== 
 
    |psi|^2 = 0.002
==== e(  37) =    28.14842 eV ==== 
 
    |psi|^2 = 0.002
==== e(  38) =    28.52304 eV ==== 
     psi = 0.002*[#  22]+0.002*[#  26]
    |psi|^2 = 0.006
==== e(  39) =    29.75722 eV ==== 
     psi = 0.001*[#  24]+0.001*[#  28]
    |psi|^2 = 0.002
==== e(  40) =    29.75792 eV ==== 
     psi = 0.001*[#  23]+0.001*[#  27]
    |psi|^2 = 0.002
==== e(  41) =    32.37436 eV ==== 
     psi = 0.002*[#  22]+0.002*[#  26]+0.002*[#  10]+0.002*[#  20]
    |psi|^2 = 0.008
==== e(  42) =    32.51637 eV ==== 
 
    |psi|^2 = 0.001
==== e(  43) =    33.61206 eV ==== 
 
    |psi|^2 = 0.002
==== e(  44) =    33.61444 eV ==== 
 
    |psi|^2 = 0.002
==== e(  45) =    36.63082 eV ==== 
     psi = 0.002*[#  24]+0.002*[#  28]
    |psi|^2 = 0.003
==== e(  46) =    36.63324 eV ==== 
     psi = 0.002*[#  23]+0.002*[#  27]
    |psi|^2 = 0.003
==== e(  47) =    36.80061 eV ==== 
     psi = 0.001*[#  22]+0.001*[#  26]
    |psi|^2 = 0.004
==== e(  48) =    38.03136 eV ==== 
     psi = 0.001*[#  10]+0.001*[#  20]
    |psi|^2 = 0.006
==== e(  49) =    40.67961 eV ==== 
     psi = 0.001*[#  23]+0.001*[#  27]
    |psi|^2 = 0.002
==== e(  50) =    40.68164 eV ==== 
     psi = 0.001*[#  24]+0.001*[#  28]
    |psi|^2 = 0.002
==== e(  51) =    41.93289 eV ==== 
     psi = 0.001*[#  23]+0.001*[#  27]
    |psi|^2 = 0.003
==== e(  52) =    41.93328 eV ==== 
     psi = 0.001*[#  24]+0.001*[#  28]
    |psi|^2 = 0.003

 k =  -0.2500000000  0.1443375673  0.0000000000
==== e(   1) =  -115.91961 eV ==== 
     psi = 0.601*[#  11]+0.396*[#   1]
    |psi|^2 = 1.000
==== e(   2) =  -115.91946 eV ==== 
     psi = 0.600*[#   1]+0.395*[#  11]+0.001*[#  22]+0.001*[#  26]
    |psi|^2 = 1.000
==== e(   3) =   -69.59611 eV ==== 
     psi = 0.374*[#  13]+0.372*[#   3]+0.127*[#  14]+0.126*[#   4]
    |psi|^2 = 1.000
==== e(   4) =   -69.58592 eV ==== 
     psi = 0.376*[#  14]+0.376*[#   4]+0.124*[#  13]+0.123*[#   3]
    |psi|^2 = 1.000
==== e(   5) =   -69.58407 eV ==== 
     psi = 0.378*[#   3]+0.377*[#  13]+0.122*[#   4]+0.122*[#  14]
    |psi|^2 = 1.000
==== e(   6) =   -69.57474 eV ==== 
     psi = 0.507*[#   2]+0.492*[#  12]
    |psi|^2 = 1.000
==== e(   7) =   -69.55562 eV ==== 
     psi = 0.507*[#  12]+0.492*[#   2]
    |psi|^2 = 1.000
==== e(   8) =   -69.54418 eV ==== 
     psi = 0.375*[#   4]+0.375*[#  14]+0.125*[#   3]+0.125*[#  13]
    |psi|^2 = 1.000
==== e(   9) =    -8.25435 eV ==== 
     psi = 0.377*[#  21]+0.377*[#  25]+0.116*[#  10]+0.116*[#  20]+0.003*[#   9]
          +0.003*[#  19]+0.001*[#   6]+0.001*[#  16]
    |psi|^2 = 0.998
==== e(  10) =    -7.68245 eV ==== 
     psi = 0.464*[#  21]+0.464*[#  25]+0.014*[#  10]+0.014*[#  20]+0.013*[#   5]
          +0.013*[#  15]+0.003*[#   9]+0.003*[#  19]+0.002*[#   6]+0.002*[#  16]
          +0.001*[#   8]+0.001*[#  18]
    |psi|^2 = 0.995
==== e(  11) =     3.02272 eV ==== 
     psi = 0.135*[#   9]+0.135*[#  19]+0.098*[#  23]+0.098*[#  27]+0.086*[#   6]
          +0.086*[#  16]+0.045*[#   8]+0.045*[#  18]+0.033*[#  24]+0.033*[#  28]
          +0.030*[#  10]+0.030*[#  20]+0.029*[#   7]+0.029*[#  17]+0.028*[#   5]
          +0.028*[#  15]+0.012*[#  22]+0.012*[#  26]+0.003*[#  21]+0.003*[#  25]
          
    |psi|^2 = 0.998
==== e(  12) =     3.35692 eV ==== 
     psi = 0.196*[#   9]+0.196*[#  19]+0.087*[#   5]+0.087*[#  15]+0.074*[#  23]
          +0.074*[#  27]+0.064*[#   8]+0.064*[#  18]+0.036*[#  22]+0.036*[#  26]
          +0.024*[#  24]+0.024*[#  28]+0.010*[#  10]+0.010*[#  20]+0.005*[#   6]
          +0.005*[#  16]+0.002*[#   7]+0.002*[#  17]
    |psi|^2 = 0.997
==== e(  13) =     3.38348 eV ==== 
     psi = 0.154*[#   8]+0.154*[#  18]+0.141*[#   7]+0.141*[#  17]+0.081*[#  24]
          +0.081*[#  28]+0.050*[#   9]+0.050*[#  19]+0.047*[#   6]+0.047*[#  16]
          +0.026*[#  23]+0.026*[#  27]
    |psi|^2 = 0.999
==== e(  14) =     3.54945 eV ==== 
     psi = 0.268*[#   5]+0.268*[#  15]+0.085*[#  22]+0.085*[#  26]+0.082*[#   9]
          +0.082*[#  19]+0.028*[#   8]+0.028*[#  18]+0.024*[#  23]+0.024*[#  27]
          +0.008*[#  24]+0.008*[#  28]+0.002*[#   6]+0.002*[#  16]
    |psi|^2 = 0.996
==== e(  15) =     3.61045 eV ==== 
     psi = 0.272*[#   8]+0.272*[#  18]+0.091*[#   9]+0.091*[#  19]+0.077*[#  24]
          +0.077*[#  28]+0.026*[#  23]+0.026*[#  27]+0.025*[#   7]+0.025*[#  17]
          +0.008*[#   6]+0.008*[#  16]
    |psi|^2 = 0.998
==== e(  16) =     3.90482 eV ==== 
     psi = 0.171*[#   6]+0.171*[#  16]+0.162*[#  22]+0.162*[#  26]+0.057*[#   7]
          +0.057*[#  17]+0.047*[#   5]+0.047*[#  15]+0.038*[#  10]+0.038*[#  20]
          +0.010*[#  23]+0.010*[#  27]+0.003*[#  24]+0.003*[#  28]+0.002*[#   9]
          +0.002*[#  19]+0.001*[#  21]+0.001*[#  25]
    |psi|^2 = 0.986
==== e(  17) =     4.19867 eV ==== 
     psi = 0.221*[#   6]+0.221*[#  16]+0.108*[#   9]+0.108*[#  19]+0.074*[#   7]
          +0.074*[#  17]+0.059*[#   5]+0.059*[#  15]+0.036*[#   8]+0.036*[#  18]
          
    |psi|^2 = 0.998
==== e(  18) =     4.35210 eV ==== 
     psi = 0.196*[#   7]+0.196*[#  17]+0.179*[#   8]+0.179*[#  18]+0.065*[#   6]
          +0.065*[#  16]+0.060*[#   9]+0.060*[#  19]
    |psi|^2 = 0.999
==== e(  19) =     4.54547 eV ==== 
     psi = 0.343*[#   7]+0.343*[#  17]+0.114*[#   6]+0.114*[#  16]+0.031*[#   8]
          +0.031*[#  18]+0.011*[#   9]+0.011*[#  19]
    |psi|^2 = 1.000
==== e(  20) =     4.81037 eV ==== 
     psi = 0.389*[#   5]+0.389*[#  15]+0.032*[#  22]+0.032*[#  26]+0.022*[#   9]
          +0.022*[#  19]+0.017*[#  10]+0.017*[#  20]+0.011*[#   6]+0.011*[#  16]
          +0.011*[#  21]+0.011*[#  25]+0.007*[#   8]+0.007*[#  18]+0.005*[#  23]
          +0.005*[#  27]+0.004*[#   7]+0.004*[#  17]+0.002*[#  24]+0.002*[#  28]
          
    |psi|^2 = 0.999
==== e(  21) =     4.94824 eV ==== 
     psi = 0.201*[#   6]+0.201*[#  16]+0.165*[#  22]+0.165*[#  26]+0.067*[#   7]
          +0.067*[#  17]+0.038*[#  10]+0.038*[#  20]+0.008*[#   5]+0.008*[#  15]
          +0.006*[#  21]+0.006*[#  25]+0.005*[#  23]+0.005*[#  27]+0.002*[#  24]
          +0.002*[#  28]
    |psi|^2 = 0.985
==== e(  22) =     6.69764 eV ==== 
     psi = 0.196*[#  23]+0.196*[#  27]+0.115*[#   9]+0.115*[#  19]+0.065*[#  24]
          +0.065*[#  28]+0.038*[#   8]+0.038*[#  18]+0.028*[#  10]+0.028*[#  20]
          +0.014*[#  22]+0.014*[#  26]+0.013*[#  21]+0.013*[#  25]+0.006*[#   5]
          +0.006*[#  15]+0.003*[#   6]+0.003*[#  16]
    |psi|^2 = 0.960
==== e(  23) =     7.41284 eV ==== 
     psi = 0.177*[#  23]+0.177*[#  27]+0.075*[#   9]+0.075*[#  19]+0.059*[#  24]
          +0.059*[#  28]+0.054*[#  10]+0.054*[#  20]+0.042*[#   6]+0.042*[#  16]
          +0.032*[#  21]+0.032*[#  25]+0.025*[#   8]+0.025*[#  18]+0.014*[#  22]
          +0.014*[#  26]+0.014*[#   7]+0.014*[#  17]
    |psi|^2 = 0.983
==== e(  24) =     7.72678 eV ==== 
     psi = 0.286*[#  24]+0.286*[#  28]+0.095*[#  23]+0.095*[#  27]+0.069*[#   8]
          +0.069*[#  18]+0.023*[#   9]+0.023*[#  19]+0.008*[#   7]+0.008*[#  17]
          +0.003*[#   6]+0.003*[#  16]
    |psi|^2 = 0.970
==== e(  25) =     8.81626 eV ==== 
     psi = 0.381*[#  22]+0.381*[#  26]+0.090*[#   5]+0.090*[#  15]+0.006*[#   9]
          +0.006*[#  19]+0.004*[#   6]+0.004*[#  16]+0.003*[#  23]+0.003*[#  27]
          +0.002*[#   8]+0.002*[#  18]+0.001*[#   7]+0.001*[#  17]+0.001*[#  10]
          +0.001*[#  20]
    |psi|^2 = 0.981
==== e(  26) =     8.87621 eV ==== 
     psi = 0.289*[#  24]+0.289*[#  28]+0.096*[#  23]+0.096*[#  27]+0.044*[#   8]
          +0.044*[#  18]+0.036*[#   7]+0.036*[#  17]+0.015*[#   9]+0.015*[#  19]
          +0.012*[#   6]+0.012*[#  16]
    |psi|^2 = 0.986
==== e(  27) =    12.47890 eV ==== 
     psi = 0.277*[#  10]+0.277*[#  20]+0.095*[#  23]+0.095*[#  27]+0.075*[#  21]
          +0.075*[#  25]+0.032*[#  24]+0.032*[#  28]+0.001*[#   5]+0.001*[#  15]
          
    |psi|^2 = 0.964
==== e(  28) =    16.11878 eV ==== 
     psi = 0.310*[#  10]+0.310*[#  20]+0.042*[#  22]+0.042*[#  26]+0.034*[#  23]
          +0.034*[#  27]+0.013*[#  21]+0.013*[#  25]+0.011*[#  24]+0.011*[#  28]
          +0.002*[#   1]+0.002*[#  11]
    |psi|^2 = 0.825
==== e(  29) =    17.38590 eV ==== 
     psi = 0.032*[#  22]+0.032*[#  26]+0.023*[#  10]+0.023*[#  20]+0.001*[#   5]
          +0.001*[#  15]
    |psi|^2 = 0.118
==== e(  30) =    18.77531 eV ==== 
     psi = 0.014*[#  23]+0.014*[#  27]+0.010*[#  10]+0.010*[#  20]+0.005*[#  24]
          +0.005*[#  28]+0.001*[#   9]+0.001*[#  19]
    |psi|^2 = 0.063
==== e(  31) =    20.73472 eV ==== 
     psi = 0.018*[#  10]+0.018*[#  20]+0.008*[#  22]+0.008*[#  26]+0.006*[#  23]
          +0.006*[#  27]+0.002*[#  24]+0.002*[#  28]
    |psi|^2 = 0.070
==== e(  32) =    22.34510 eV ==== 
     psi = 0.003*[#  22]+0.003*[#  26]+0.002*[#  10]+0.002*[#  20]+0.001*[#  23]
          +0.001*[#  27]
    |psi|^2 = 0.016
==== e(  33) =    22.52003 eV ==== 
     psi = 0.006*[#  24]+0.006*[#  28]+0.002*[#  23]+0.002*[#  27]
    |psi|^2 = 0.016
==== e(  34) =    23.39219 eV ==== 
     psi = 0.006*[#  24]+0.006*[#  28]+0.002*[#  23]+0.002*[#  27]
    |psi|^2 = 0.018
==== e(  35) =    24.71468 eV ==== 
     psi = 0.003*[#  10]+0.003*[#  20]+0.001*[#  22]+0.001*[#  23]+0.001*[#  26]
          +0.001*[#  27]
    |psi|^2 = 0.012
==== e(  36) =    27.04082 eV ==== 
 
    |psi|^2 = 0.002
==== e(  37) =    27.45807 eV ==== 
     psi = 0.003*[#  10]+0.003*[#  20]+0.002*[#  22]+0.002*[#  26]+0.001*[#  23]
          +0.001*[#  27]
    |psi|^2 = 0.013
==== e(  38) =    29.98885 eV ==== 
 
    |psi|^2 = 0.005
==== e(  39) =    32.45604 eV ==== 
     psi = 0.001*[#  22]+0.001*[#  26]
    |psi|^2 = 0.003
==== e(  40) =    33.34494 eV ==== 
 
    |psi|^2 = 0.003
==== e(  41) =    33.70291 eV ==== 
 
    |psi|^2 = 0.000
==== e(  42) =    33.74354 eV ==== 
 
    |psi|^2 = 0.003
==== e(  43) =    34.79772 eV ==== 
     psi = 0.001*[#  24]+0.001*[#  28]
    |psi|^2 = 0.003
==== e(  44) =    36.01701 eV ==== 
 
    |psi|^2 = 0.003
==== e(  45) =    37.30894 eV ==== 
 
    |psi|^2 = 0.003
==== e(  46) =    37.62110 eV ==== 
     psi = 0.002*[#  24]+0.002*[#  28]
    |psi|^2 = 0.005
==== e(  47) =    37.73274 eV ==== 
 
    |psi|^2 = 0.002
==== e(  48) =    38.12130 eV ==== 
 
    |psi|^2 = 0.000
==== e(  49) =    39.63515 eV ==== 
     psi = 0.001*[#  10]+0.001*[#  20]
    |psi|^2 = 0.004
==== e(  50) =    40.51394 eV ==== 
 
    |psi|^2 = 0.002
==== e(  51) =    41.34206 eV ==== 
 
    |psi|^2 = 0.002
==== e(  52) =    44.13241 eV ==== 
 
    |psi|^2 = 0.000

 k =  -0.2500000000  0.1443375673 -0.1560513011
==== e(   1) =  -115.91956 eV ==== 
     psi = 0.645*[#  11]+0.352*[#   1]
    |psi|^2 = 1.000
==== e(   2) =  -115.91945 eV ==== 
     psi = 0.644*[#   1]+0.351*[#  11]+0.001*[#  26]
    |psi|^2 = 1.000
==== e(   3) =   -69.59642 eV ==== 
     psi = 0.289*[#   2]+0.283*[#  12]+0.160*[#  13]+0.159*[#   3]+0.054*[#  14]
          +0.054*[#   4]
    |psi|^2 = 1.000
==== e(   4) =   -69.57634 eV ==== 
     psi = 0.375*[#  14]+0.374*[#   4]+0.125*[#   3]+0.125*[#  13]
    |psi|^2 = 1.000
==== e(   5) =   -69.56774 eV ==== 
     psi = 0.362*[#   2]+0.361*[#  12]+0.106*[#  13]+0.101*[#   3]+0.035*[#  14]
          +0.034*[#   4]
    |psi|^2 = 1.000
==== e(   6) =   -69.55746 eV ==== 
     psi = 0.268*[#   3]+0.260*[#  13]+0.148*[#   2]+0.148*[#  12]+0.089*[#   4]
          +0.086*[#  14]
    |psi|^2 = 1.000
==== e(   7) =   -69.54820 eV ==== 
     psi = 0.223*[#  13]+0.220*[#   3]+0.207*[#  12]+0.200*[#   2]+0.074*[#  14]
          +0.073*[#   4]
    |psi|^2 = 1.000
==== e(   8) =   -69.54589 eV ==== 
     psi = 0.375*[#   4]+0.375*[#  14]+0.125*[#   3]+0.125*[#  13]
    |psi|^2 = 1.000
==== e(   9) =    -8.17094 eV ==== 
     psi = 0.389*[#  25]+0.388*[#  21]+0.104*[#  20]+0.103*[#  10]+0.003*[#   9]
          +0.003*[#  19]+0.001*[#   5]+0.001*[#   6]+0.001*[#  15]+0.001*[#  16]
          
    |psi|^2 = 0.998
==== e(  10) =    -7.76565 eV ==== 
     psi = 0.450*[#  21]+0.449*[#  25]+0.032*[#  10]+0.031*[#  20]+0.010*[#   5]
          +0.010*[#  15]+0.003*[#  19]+0.003*[#   9]+0.002*[#  16]+0.002*[#   6]
          +0.001*[#   8]+0.001*[#  18]
    |psi|^2 = 0.996
==== e(  11) =     2.97368 eV ==== 
     psi = 0.124*[#   9]+0.110*[#  19]+0.100*[#  27]+0.099*[#  16]+0.071*[#  22]
          +0.071*[#  23]+0.068*[#  15]+0.058*[#   6]+0.055*[#  10]+0.041*[#   8]
          +0.036*[#  18]+0.033*[#  28]+0.033*[#  17]+0.026*[#   5]+0.024*[#  24]
          +0.020*[#  20]+0.019*[#   7]+0.004*[#  25]+0.002*[#  21]+0.002*[#  26]
          
    |psi|^2 = 0.998
==== e(  12) =     3.20920 eV ==== 
     psi = 0.170*[#   9]+0.138*[#  26]+0.110*[#  19]+0.081*[#  23]+0.072*[#   5]
          +0.062*[#   6]+0.062*[#  20]+0.062*[#  27]+0.057*[#   8]+0.037*[#  18]
          +0.033*[#  15]+0.027*[#  24]+0.021*[#   7]+0.021*[#  28]+0.018*[#  16]
          +0.015*[#  10]+0.006*[#  17]+0.004*[#  22]
    |psi|^2 = 0.996
==== e(  13) =     3.41796 eV ==== 
     psi = 0.173*[#  18]+0.154*[#   8]+0.135*[#   7]+0.125*[#  17]+0.082*[#  24]
          +0.080*[#  28]+0.058*[#  19]+0.051*[#   9]+0.045*[#   6]+0.042*[#  16]
          +0.027*[#  23]+0.026*[#  27]
    |psi|^2 = 0.999
==== e(  14) =     3.48240 eV ==== 
     psi = 0.323*[#   5]+0.210*[#  15]+0.162*[#  19]+0.105*[#  22]+0.055*[#  23]
          +0.054*[#  18]+0.043*[#  26]+0.018*[#  24]+0.006*[#   6]+0.004*[#  16]
          +0.003*[#   9]+0.003*[#  10]+0.003*[#  20]+0.002*[#   7]+0.001*[#  17]
          +0.001*[#  27]+0.001*[#   8]
    |psi|^2 = 0.997
==== e(  15) =     3.59502 eV ==== 
     psi = 0.250*[#   8]+0.227*[#  18]+0.083*[#   9]+0.082*[#  28]+0.078*[#  24]
          +0.076*[#  19]+0.064*[#  17]+0.047*[#   7]+0.027*[#  27]+0.026*[#  23]
          +0.021*[#  16]+0.016*[#   6]
    |psi|^2 = 0.998
==== e(  16) =     3.65288 eV ==== 
     psi = 0.285*[#  15]+0.145*[#   5]+0.102*[#   9]+0.100*[#  26]+0.100*[#  22]
          +0.054*[#   6]+0.041*[#  27]+0.034*[#   8]+0.027*[#  19]+0.025*[#  10]
          +0.018*[#   7]+0.017*[#  20]+0.014*[#  28]+0.012*[#  16]+0.009*[#  18]
          +0.004*[#  23]+0.004*[#  17]+0.001*[#  24]
    |psi|^2 = 0.995
==== e(  17) =     4.33162 eV ==== 
     psi = 0.317*[#  16]+0.164*[#   6]+0.106*[#  17]+0.105*[#  19]+0.102*[#   9]
          +0.056*[#   5]+0.055*[#   7]+0.035*[#  18]+0.034*[#   8]+0.016*[#  15]
          +0.002*[#  20]+0.002*[#  22]+0.001*[#  23]+0.001*[#  27]
    |psi|^2 = 0.998
==== e(  18) =     4.39319 eV ==== 
     psi = 0.251*[#   7]+0.170*[#  17]+0.170*[#   8]+0.159*[#  18]+0.083*[#   6]
          +0.056*[#   9]+0.056*[#  16]+0.053*[#  19]
    |psi|^2 = 0.999
==== e(  19) =     4.49203 eV ==== 
     psi = 0.342*[#  17]+0.266*[#   7]+0.114*[#  16]+0.089*[#   6]+0.079*[#  18]
          +0.063*[#   8]+0.026*[#  19]+0.021*[#   9]
    |psi|^2 = 1.000
==== e(  20) =     4.66646 eV ==== 
     psi = 0.324*[#   6]+0.212*[#  16]+0.108*[#   7]+0.078*[#  15]+0.076*[#   5]
          +0.071*[#  17]+0.036*[#   9]+0.032*[#  19]+0.012*[#  22]+0.012*[#   8]
          +0.011*[#  18]+0.010*[#  26]+0.006*[#  10]+0.004*[#  20]+0.004*[#  25]
          +0.002*[#  21]+0.001*[#  23]
    |psi|^2 = 0.999
==== e(  21) =     5.77360 eV ==== 
     psi = 0.172*[#  15]+0.167*[#  22]+0.165*[#  26]+0.164*[#   5]+0.046*[#  20]
          +0.040*[#  10]+0.036*[#   9]+0.031*[#   6]+0.025*[#  16]+0.023*[#  19]
          +0.022*[#  21]+0.019*[#  23]+0.017*[#  25]+0.012*[#   8]+0.010*[#   7]
          +0.008*[#  17]+0.008*[#  27]+0.008*[#  18]+0.006*[#  24]+0.003*[#  28]
          
    |psi|^2 = 0.985
==== e(  22) =     6.85098 eV ==== 
     psi = 0.251*[#  27]+0.123*[#   9]+0.084*[#  28]+0.076*[#  26]+0.070*[#  23]
          +0.054*[#  10]+0.042*[#  15]+0.042*[#  19]+0.041*[#   8]+0.034*[#  16]
          +0.028*[#  25]+0.025*[#  20]+0.023*[#  24]+0.021*[#  21]+0.018*[#   5]
          +0.014*[#  18]+0.011*[#  17]+0.007*[#   6]+0.002*[#   7]+0.001*[#  22]
          
    |psi|^2 = 0.969
==== e(  23) =     7.29931 eV ==== 
     psi = 0.266*[#  23]+0.125*[#  19]+0.112*[#  22]+0.089*[#  24]+0.069*[#  27]
          +0.041*[#  18]+0.036*[#  20]+0.034*[#   6]+0.029*[#   5]+0.023*[#  28]
          +0.023*[#   9]+0.021*[#  10]+0.020*[#  16]+0.019*[#  26]+0.016*[#  21]
          +0.014*[#  25]+0.011*[#   7]+0.007*[#   8]+0.007*[#  17]+0.004*[#  15]
          
    |psi|^2 = 0.966
==== e(  24) =     7.92395 eV ==== 
     psi = 0.287*[#  24]+0.280*[#  28]+0.095*[#  23]+0.093*[#  27]+0.065*[#   8]
          +0.065*[#  18]+0.022*[#   9]+0.022*[#  19]+0.017*[#   7]+0.014*[#  17]
          +0.006*[#   6]+0.005*[#  16]
    |psi|^2 = 0.972
==== e(  25) =     8.65141 eV ==== 
     psi = 0.313*[#  26]+0.289*[#  22]+0.082*[#  27]+0.078*[#  15]+0.077*[#   5]
          +0.047*[#  23]+0.027*[#  28]+0.023*[#   9]+0.016*[#  24]+0.008*[#   8]
          +0.007*[#   6]+0.004*[#  16]+0.004*[#  19]+0.002*[#   7]+0.002*[#  20]
          +0.001*[#  17]+0.001*[#  18]
    |psi|^2 = 0.983
==== e(  26) =     8.72584 eV ==== 
     psi = 0.291*[#  28]+0.284*[#  24]+0.097*[#  27]+0.095*[#  23]+0.047*[#   8]
          +0.047*[#  18]+0.035*[#  17]+0.034*[#   7]+0.015*[#   9]+0.015*[#  19]
          +0.012*[#  16]+0.011*[#   6]
    |psi|^2 = 0.983
==== e(  27) =    12.86396 eV ==== 
     psi = 0.282*[#  20]+0.275*[#  10]+0.068*[#  23]+0.067*[#  21]+0.065*[#  25]
          +0.065*[#  27]+0.032*[#  22]+0.031*[#  26]+0.023*[#  24]+0.022*[#  28]
          
    |psi|^2 = 0.932
==== e(  28) =    15.36440 eV ==== 
     psi = 0.292*[#  20]+0.281*[#  10]+0.063*[#  26]+0.059*[#  22]+0.025*[#  27]
          +0.025*[#  23]+0.022*[#  21]+0.021*[#  25]+0.008*[#  28]+0.008*[#  24]
          +0.001*[#   1]+0.001*[#  11]
    |psi|^2 = 0.810
==== e(  29) =    17.78584 eV ==== 
     psi = 0.055*[#  10]+0.022*[#  27]+0.021*[#  20]+0.015*[#  22]+0.011*[#  26]
          +0.008*[#  23]+0.007*[#  28]+0.003*[#  25]+0.003*[#  24]+0.001*[#  15]
          
    |psi|^2 = 0.149
==== e(  30) =    18.90764 eV ==== 
     psi = 0.017*[#  23]+0.016*[#  20]+0.012*[#  10]+0.009*[#  27]+0.006*[#  24]
          +0.003*[#  28]+0.003*[#  22]+0.002*[#  21]+0.002*[#  26]+0.001*[#  19]
          +0.001*[#  25]
    |psi|^2 = 0.073
==== e(  31) =    20.56868 eV ==== 
     psi = 0.027*[#  20]+0.015*[#  22]+0.011*[#  26]+0.008*[#  10]+0.008*[#  23]
          +0.004*[#  27]+0.003*[#  24]+0.001*[#  28]
    |psi|^2 = 0.081
==== e(  32) =    21.78739 eV ==== 
     psi = 0.005*[#  26]+0.002*[#  10]+0.002*[#  27]
    |psi|^2 = 0.013
==== e(  33) =    22.53528 eV ==== 
     psi = 0.009*[#  24]+0.003*[#  28]+0.003*[#  23]+0.001*[#  27]
    |psi|^2 = 0.017
==== e(  34) =    23.11522 eV ==== 
     psi = 0.009*[#  28]+0.004*[#  24]+0.003*[#  27]+0.001*[#  23]
    |psi|^2 = 0.019
==== e(  35) =    24.59047 eV ==== 
     psi = 0.004*[#  10]+0.003*[#  26]+0.002*[#  27]+0.001*[#  20]
    |psi|^2 = 0.013
==== e(  36) =    27.70778 eV ==== 
     psi = 0.002*[#  22]
    |psi|^2 = 0.006
==== e(  37) =    27.94771 eV ==== 
 
    |psi|^2 = 0.001
==== e(  38) =    30.68531 eV ==== 
     psi = 0.002*[#  10]+0.001*[#  22]+0.001*[#  26]
    |psi|^2 = 0.006
==== e(  39) =    31.53622 eV ==== 
 
    |psi|^2 = 0.004
==== e(  40) =    32.65675 eV ==== 
 
    |psi|^2 = 0.001
==== e(  41) =    33.46506 eV ==== 
 
    |psi|^2 = 0.003
==== e(  42) =    34.16992 eV ==== 
 
    |psi|^2 = 0.002
==== e(  43) =    34.76571 eV ==== 
 
    |psi|^2 = 0.001
==== e(  44) =    36.64563 eV ==== 
 
    |psi|^2 = 0.002
==== e(  45) =    36.73055 eV ==== 
     psi = 0.002*[#  28]+0.002*[#  24]
    |psi|^2 = 0.005
==== e(  46) =    37.32697 eV ==== 
     psi = 0.001*[#  27]
    |psi|^2 = 0.003
==== e(  47) =    37.64800 eV ==== 
     psi = 0.002*[#  23]
    |psi|^2 = 0.004
==== e(  48) =    39.64571 eV ==== 
 
    |psi|^2 = 0.002
==== e(  49) =    39.84543 eV ==== 
 
    |psi|^2 = 0.003
==== e(  50) =    41.06247 eV ==== 
 
    |psi|^2 = 0.002
==== e(  51) =    41.97553 eV ==== 
 
    |psi|^2 = 0.002
==== e(  52) =    43.84987 eV ==== 
 
    |psi|^2 = 0.000

 k =  -0.2500000000  0.1443375673  0.3121026021
==== e(   1) =  -115.91955 eV ==== 
     psi = 0.997*[#  11]+0.001*[#  23]
    |psi|^2 = 1.000
==== e(   2) =  -115.91952 eV ==== 
     psi = 0.997*[#   1]+0.001*[#  27]
    |psi|^2 = 1.000
==== e(   3) =   -69.59652 eV ==== 
     psi = 0.797*[#   2]+0.151*[#  13]+0.051*[#  14]
    |psi|^2 = 1.000
==== e(   4) =   -69.59629 eV ==== 
     psi = 0.793*[#  12]+0.153*[#   3]+0.052*[#   4]
    |psi|^2 = 1.000
==== e(   5) =   -69.57266 eV ==== 
     psi = 0.598*[#  13]+0.202*[#   2]+0.199*[#  14]
    |psi|^2 = 1.000
==== e(   6) =   -69.57259 eV ==== 
     psi = 0.595*[#   3]+0.205*[#  12]+0.198*[#   4]
    |psi|^2 = 1.000
==== e(   7) =   -69.55729 eV ==== 
     psi = 0.749*[#  14]+0.250*[#  13]
    |psi|^2 = 1.000
==== e(   8) =   -69.55727 eV ==== 
     psi = 0.749*[#   4]+0.250*[#   3]
    |psi|^2 = 1.000
==== e(   9) =    -7.96906 eV ==== 
     psi = 0.730*[#  21]+0.140*[#  20]+0.104*[#  25]+0.008*[#   5]+0.005*[#  19]
          +0.002*[#  16]+0.002*[#  18]+0.001*[#  15]
    |psi|^2 = 0.998
==== e(  10) =    -7.96906 eV ==== 
     psi = 0.730*[#  25]+0.140*[#  10]+0.104*[#  21]+0.008*[#  15]+0.005*[#   9]
          +0.002*[#   6]+0.002*[#   8]+0.001*[#   5]
    |psi|^2 = 0.998
==== e(  11) =     2.96369 eV ==== 
     psi = 0.137*[#   5]+0.106*[#  23]+0.100*[#  16]+0.099*[#  19]+0.099*[#  26]
          +0.096*[#  20]+0.092*[#   9]+0.045*[#  22]+0.035*[#  24]+0.033*[#  17]
          +0.033*[#  18]+0.033*[#  27]+0.031*[#   8]+0.028*[#   6]+0.011*[#  28]
          +0.009*[#   7]+0.005*[#  10]+0.003*[#  21]+0.002*[#  25]
    |psi|^2 = 0.998
==== e(  12) =     2.96371 eV ==== 
     psi = 0.137*[#  15]+0.106*[#  27]+0.100*[#   6]+0.099*[#   9]+0.099*[#  22]
          +0.096*[#  10]+0.092*[#  19]+0.045*[#  26]+0.035*[#  28]+0.033*[#   7]
          +0.033*[#   8]+0.033*[#  23]+0.031*[#  18]+0.028*[#  16]+0.011*[#  24]
          +0.009*[#  17]+0.005*[#  20]+0.003*[#  25]+0.002*[#  21]
    |psi|^2 = 0.998
==== e(  13) =     3.48476 eV ==== 
     psi = 0.487*[#   5]+0.131*[#  19]+0.094*[#  22]+0.068*[#   9]+0.043*[#  18]
          +0.040*[#  27]+0.032*[#  26]+0.031*[#  23]+0.021*[#   8]+0.012*[#  16]
          +0.012*[#  28]+0.009*[#  24]+0.009*[#  20]+0.004*[#  17]+0.003*[#   6]
          +0.001*[#   7]
    |psi|^2 = 0.997
==== e(  14) =     3.48482 eV ==== 
     psi = 0.487*[#  15]+0.131*[#   9]+0.094*[#  26]+0.068*[#  19]+0.043*[#   8]
          +0.040*[#  23]+0.032*[#  22]+0.031*[#  27]+0.021*[#  18]+0.012*[#   6]
          +0.012*[#  24]+0.009*[#  28]+0.009*[#  10]+0.004*[#   7]+0.003*[#  16]
          +0.001*[#  17]
    |psi|^2 = 0.997
==== e(  15) =     3.49165 eV ==== 
     psi = 0.229*[#   8]+0.195*[#   7]+0.164*[#  18]+0.101*[#  28]+0.074*[#   9]
          +0.065*[#   6]+0.062*[#  24]+0.053*[#  19]+0.032*[#  27]+0.019*[#  23]
          +0.003*[#  17]+0.001*[#  16]
    |psi|^2 = 0.998
==== e(  16) =     3.49165 eV ==== 
     psi = 0.229*[#  18]+0.195*[#  17]+0.164*[#   8]+0.101*[#  24]+0.074*[#  19]
          +0.065*[#  16]+0.062*[#  28]+0.053*[#   9]+0.032*[#  23]+0.019*[#  27]
          +0.003*[#   7]+0.001*[#   6]
    |psi|^2 = 0.998
==== e(  17) =     4.44329 eV ==== 
     psi = 0.499*[#   7]+0.180*[#   8]+0.164*[#   6]+0.073*[#  18]+0.060*[#   9]
          +0.024*[#  19]
    |psi|^2 = 0.999
==== e(  18) =     4.44330 eV ==== 
     psi = 0.499*[#  17]+0.180*[#  18]+0.164*[#  16]+0.073*[#   8]+0.060*[#  19]
          +0.024*[#   9]
    |psi|^2 = 0.999
==== e(  19) =     4.46517 eV ==== 
     psi = 0.419*[#   6]+0.152*[#  19]+0.138*[#   7]+0.103*[#  16]+0.066*[#   5]
          +0.050*[#  18]+0.034*[#  17]+0.012*[#  15]+0.010*[#   9]+0.004*[#  20]
          +0.004*[#  26]+0.003*[#   8]+0.002*[#  27]+0.001*[#  21]+0.001*[#  25]
          
    |psi|^2 = 0.999
==== e(  20) =     4.46518 eV ==== 
     psi = 0.419*[#  16]+0.152*[#   9]+0.138*[#  17]+0.103*[#   6]+0.066*[#  15]
          +0.050*[#   8]+0.034*[#   7]+0.012*[#   5]+0.010*[#  19]+0.004*[#  10]
          +0.004*[#  22]+0.003*[#  18]+0.002*[#  23]+0.001*[#  21]+0.001*[#  25]
          
    |psi|^2 = 0.999
==== e(  21) =     6.52109 eV ==== 
     psi = 0.159*[#   5]+0.128*[#  22]+0.093*[#   9]+0.083*[#  20]+0.081*[#  23]
          +0.067*[#  16]+0.065*[#  26]+0.061*[#  27]+0.035*[#  19]+0.034*[#  25]
          +0.031*[#   8]+0.027*[#  21]+0.027*[#  24]+0.025*[#  10]+0.022*[#  17]
          +0.020*[#  28]+0.012*[#  18]+0.011*[#  15]+0.003*[#   6]+0.001*[#   7]
          
    |psi|^2 = 0.987
==== e(  22) =     6.52113 eV ==== 
     psi = 0.159*[#  15]+0.128*[#  26]+0.093*[#  19]+0.083*[#  10]+0.081*[#  27]
          +0.067*[#   6]+0.065*[#  22]+0.061*[#  23]+0.035*[#   9]+0.034*[#  21]
          +0.031*[#  18]+0.027*[#  25]+0.027*[#  28]+0.025*[#  20]+0.022*[#   7]
          +0.020*[#  24]+0.012*[#   8]+0.011*[#   5]+0.003*[#  16]+0.001*[#  17]
          
    |psi|^2 = 0.987
==== e(  23) =     7.94189 eV ==== 
     psi = 0.308*[#  22]+0.199*[#  27]+0.111*[#   5]+0.086*[#  23]+0.066*[#  28]
          +0.054*[#  26]+0.043*[#  19]+0.029*[#  24]+0.022*[#   9]+0.014*[#  18]
          +0.007*[#   8]+0.007*[#  16]+0.005*[#   6]+0.003*[#  15]+0.002*[#  17]
          +0.002*[#  20]+0.002*[#   7]+0.001*[#  25]
    |psi|^2 = 0.963
==== e(  24) =     7.94191 eV ==== 
     psi = 0.308*[#  26]+0.199*[#  23]+0.111*[#  15]+0.086*[#  27]+0.066*[#  24]
          +0.054*[#  22]+0.043*[#   9]+0.029*[#  28]+0.022*[#  19]+0.014*[#   8]
          +0.007*[#  18]+0.007*[#   6]+0.005*[#  16]+0.003*[#   5]+0.002*[#   7]
          +0.002*[#  10]+0.002*[#  17]+0.001*[#  21]
    |psi|^2 = 0.963
==== e(  25) =     8.32410 eV ==== 
     psi = 0.344*[#  24]+0.227*[#  28]+0.115*[#  23]+0.075*[#  27]+0.066*[#  18]
          +0.046*[#   7]+0.042*[#   8]+0.022*[#  19]+0.015*[#   6]+0.014*[#   9]
          +0.008*[#  17]+0.003*[#  16]
    |psi|^2 = 0.977
==== e(  26) =     8.32410 eV ==== 
     psi = 0.344*[#  28]+0.227*[#  24]+0.115*[#  27]+0.075*[#  23]+0.066*[#   8]
          +0.046*[#  17]+0.042*[#  18]+0.022*[#   9]+0.015*[#  16]+0.014*[#  19]
          +0.008*[#   7]+0.003*[#   6]
    |psi|^2 = 0.977
==== e(  27) =    13.98373 eV ==== 
     psi = 0.449*[#  20]+0.110*[#  10]+0.080*[#  22]+0.054*[#  26]+0.048*[#  25]
          +0.038*[#  21]+0.037*[#  23]+0.029*[#  27]+0.012*[#  24]+0.010*[#  28]
          
    |psi|^2 = 0.870
==== e(  28) =    13.98380 eV ==== 
     psi = 0.449*[#  10]+0.110*[#  20]+0.080*[#  26]+0.054*[#  22]+0.048*[#  21]
          +0.038*[#  25]+0.037*[#  27]+0.029*[#  23]+0.012*[#  28]+0.010*[#  24]
          
    |psi|^2 = 0.870
==== e(  29) =    18.57312 eV ==== 
     psi = 0.034*[#  20]+0.025*[#  10]+0.019*[#  23]+0.018*[#  27]+0.006*[#  24]
          +0.006*[#  26]+0.006*[#  28]+0.005*[#  21]+0.001*[#   9]
    |psi|^2 = 0.123
==== e(  30) =    18.57316 eV ==== 
     psi = 0.034*[#  10]+0.025*[#  20]+0.019*[#  27]+0.018*[#  23]+0.006*[#  28]
          +0.006*[#  22]+0.006*[#  24]+0.005*[#  25]+0.001*[#  19]
    |psi|^2 = 0.123
==== e(  31) =    20.68172 eV ==== 
     psi = 0.020*[#  26]+0.006*[#  20]+0.005*[#  10]+0.004*[#  23]+0.001*[#  24]
          
    |psi|^2 = 0.039
==== e(  32) =    20.68178 eV ==== 
     psi = 0.020*[#  22]+0.006*[#  10]+0.005*[#  20]+0.004*[#  27]+0.001*[#  28]
          
    |psi|^2 = 0.039
==== e(  33) =    22.70843 eV ==== 
     psi = 0.009*[#  24]+0.004*[#  28]+0.003*[#  23]+0.001*[#  27]
    |psi|^2 = 0.019
==== e(  34) =    22.70847 eV ==== 
     psi = 0.009*[#  28]+0.004*[#  24]+0.003*[#  27]+0.001*[#  23]
    |psi|^2 = 0.019
==== e(  35) =    26.11704 eV ==== 
     psi = 0.002*[#  26]
    |psi|^2 = 0.005
==== e(  36) =    26.11708 eV ==== 
     psi = 0.002*[#  22]
    |psi|^2 = 0.005
==== e(  37) =    30.08449 eV ==== 
 
    |psi|^2 = 0.000
==== e(  38) =    30.08455 eV ==== 
 
    |psi|^2 = 0.000
==== e(  39) =    31.48502 eV ==== 
     psi = 0.002*[#  26]+0.001*[#  20]
    |psi|^2 = 0.005
==== e(  40) =    31.48508 eV ==== 
     psi = 0.002*[#  22]+0.001*[#  10]
    |psi|^2 = 0.005
==== e(  41) =    33.59400 eV ==== 
 
    |psi|^2 = 0.003
==== e(  42) =    33.59408 eV ==== 
 
    |psi|^2 = 0.003
==== e(  43) =    35.76982 eV ==== 
     psi = 0.002*[#  24]
    |psi|^2 = 0.003
==== e(  44) =    35.76987 eV ==== 
     psi = 0.002*[#  28]
    |psi|^2 = 0.003
==== e(  45) =    37.38835 eV ==== 
     psi = 0.001*[#  23]
    |psi|^2 = 0.003
==== e(  46) =    37.38839 eV ==== 
     psi = 0.001*[#  27]
    |psi|^2 = 0.003
==== e(  47) =    39.33072 eV ==== 
 
    |psi|^2 = 0.002
==== e(  48) =    39.33077 eV ==== 
 
    |psi|^2 = 0.002
==== e(  49) =    41.49571 eV ==== 
 
    |psi|^2 = 0.001
==== e(  50) =    41.49575 eV ==== 
 
    |psi|^2 = 0.001
==== e(  51) =    41.61869 eV ==== 
 
    |psi|^2 = 0.001
==== e(  52) =    41.61876 eV ==== 
 
    |psi|^2 = 0.001

 k =  -0.2500000000  0.1443375673  0.1560513011
==== e(   1) =  -115.91956 eV ==== 
     psi = 0.644*[#  11]+0.353*[#   1]
    |psi|^2 = 1.000
==== e(   2) =  -115.91945 eV ==== 
     psi = 0.643*[#   1]+0.353*[#  11]+0.001*[#  22]
    |psi|^2 = 1.000
==== e(   3) =   -69.59642 eV ==== 
     psi = 0.288*[#   2]+0.284*[#  12]+0.160*[#   3]+0.159*[#  13]+0.054*[#   4]
          +0.054*[#  14]
    |psi|^2 = 1.000
==== e(   4) =   -69.57634 eV ==== 
     psi = 0.375*[#  14]+0.374*[#   4]+0.125*[#  13]+0.125*[#   3]
    |psi|^2 = 1.000
==== e(   5) =   -69.56774 eV ==== 
     psi = 0.364*[#   2]+0.359*[#  12]+0.107*[#  13]+0.100*[#   3]+0.036*[#  14]
          +0.033*[#   4]
    |psi|^2 = 1.000
==== e(   6) =   -69.55746 eV ==== 
     psi = 0.268*[#   3]+0.261*[#  13]+0.150*[#  12]+0.146*[#   2]+0.089*[#   4]
          +0.086*[#  14]
    |psi|^2 = 1.000
==== e(   7) =   -69.54820 eV ==== 
     psi = 0.223*[#  13]+0.221*[#   3]+0.207*[#  12]+0.201*[#   2]+0.074*[#  14]
          +0.073*[#   4]
    |psi|^2 = 1.000
==== e(   8) =   -69.54589 eV ==== 
     psi = 0.375*[#   4]+0.374*[#  14]+0.125*[#  13]+0.125*[#   3]
    |psi|^2 = 1.000
==== e(   9) =    -8.17094 eV ==== 
     psi = 0.389*[#  21]+0.388*[#  25]+0.104*[#  10]+0.103*[#  20]+0.003*[#  19]
          +0.003*[#   9]+0.001*[#   5]+0.001*[#  15]+0.001*[#  16]+0.001*[#   6]
          
    |psi|^2 = 0.998
==== e(  10) =    -7.76565 eV ==== 
     psi = 0.449*[#  21]+0.450*[#  25]+0.032*[#  20]+0.031*[#  10]+0.010*[#   5]
          +0.010*[#  15]+0.003*[#   9]+0.003*[#  19]+0.002*[#   6]+0.002*[#  16]
          +0.001*[#   8]+0.001*[#  18]
    |psi|^2 = 0.996
==== e(  11) =     2.97368 eV ==== 
     psi = 0.124*[#  19]+0.110*[#   9]+0.100*[#  23]+0.099*[#   6]+0.071*[#  26]
          +0.071*[#  27]+0.068*[#   5]+0.058*[#  16]+0.055*[#  20]+0.041*[#  18]
          +0.036*[#   8]+0.033*[#  24]+0.033*[#   7]+0.026*[#  15]+0.024*[#  28]
          +0.020*[#  10]+0.019*[#  17]+0.004*[#  21]+0.002*[#  25]+0.002*[#  22]
          
    |psi|^2 = 0.998
==== e(  12) =     3.20920 eV ==== 
     psi = 0.170*[#  19]+0.138*[#  22]+0.110*[#   9]+0.081*[#  27]+0.072*[#  15]
          +0.062*[#  16]+0.062*[#  10]+0.062*[#  23]+0.057*[#  18]+0.037*[#   8]
          +0.033*[#   5]+0.027*[#  28]+0.021*[#  17]+0.021*[#  24]+0.018*[#   6]
          +0.015*[#  20]+0.006*[#   7]+0.004*[#  26]
    |psi|^2 = 0.996
==== e(  13) =     3.41796 eV ==== 
     psi = 0.173*[#   8]+0.154*[#  18]+0.135*[#  17]+0.125*[#   7]+0.082*[#  28]
          +0.080*[#  24]+0.058*[#   9]+0.051*[#  19]+0.045*[#  16]+0.042*[#   6]
          +0.027*[#  27]+0.026*[#  23]
    |psi|^2 = 0.999
==== e(  14) =     3.48241 eV ==== 
     psi = 0.323*[#  15]+0.211*[#   5]+0.162*[#   9]+0.105*[#  26]+0.055*[#  27]
          +0.054*[#   8]+0.043*[#  22]+0.018*[#  28]+0.006*[#  16]+0.004*[#   6]
          +0.003*[#  19]+0.003*[#  20]+0.003*[#  10]+0.002*[#  17]+0.001*[#   7]
          +0.001*[#  23]+0.001*[#  18]
    |psi|^2 = 0.997
==== e(  15) =     3.59502 eV ==== 
     psi = 0.250*[#  18]+0.227*[#   8]+0.083*[#  19]+0.082*[#  24]+0.078*[#  28]
          +0.076*[#   9]+0.064*[#   7]+0.047*[#  17]+0.027*[#  23]+0.026*[#  27]
          +0.021*[#   6]+0.016*[#  16]
    |psi|^2 = 0.998
==== e(  16) =     3.65286 eV ==== 
     psi = 0.285*[#   5]+0.146*[#  15]+0.101*[#  19]+0.100*[#  22]+0.100*[#  26]
          +0.054*[#  16]+0.041*[#  23]+0.034*[#  18]+0.027*[#   9]+0.025*[#  20]
          +0.018*[#  17]+0.017*[#  10]+0.014*[#  24]+0.012*[#   6]+0.009*[#   8]
          +0.004*[#  27]+0.004*[#   7]+0.001*[#  28]
    |psi|^2 = 0.995
==== e(  17) =     4.33162 eV ==== 
     psi = 0.317*[#   6]+0.164*[#  16]+0.106*[#   7]+0.105*[#   9]+0.102*[#  19]
          +0.056*[#  15]+0.055*[#  17]+0.035*[#   8]+0.034*[#  18]+0.016*[#   5]
          +0.002*[#  10]+0.002*[#  26]+0.001*[#  23]+0.001*[#  27]
    |psi|^2 = 0.998
==== e(  18) =     4.39319 eV ==== 
     psi = 0.251*[#  17]+0.170*[#   7]+0.170*[#  18]+0.159*[#   8]+0.083*[#  16]
          +0.056*[#   6]+0.056*[#  19]+0.053*[#   9]
    |psi|^2 = 0.999
==== e(  19) =     4.49203 eV ==== 
     psi = 0.342*[#   7]+0.266*[#  17]+0.114*[#   6]+0.089*[#  16]+0.079*[#   8]
          +0.063*[#  18]+0.026*[#   9]+0.021*[#  19]
    |psi|^2 = 1.000
==== e(  20) =     4.66646 eV ==== 
     psi = 0.324*[#  16]+0.212*[#   6]+0.108*[#  17]+0.078*[#   5]+0.076*[#  15]
          +0.071*[#   7]+0.036*[#  19]+0.032*[#   9]+0.012*[#  26]+0.012*[#  18]
          +0.011*[#   8]+0.010*[#  22]+0.006*[#  20]+0.004*[#  10]+0.004*[#  21]
          +0.002*[#  25]+0.001*[#  27]
    |psi|^2 = 0.999
==== e(  21) =     5.77360 eV ==== 
     psi = 0.172*[#   5]+0.167*[#  26]+0.165*[#  22]+0.164*[#  15]+0.046*[#  10]
          +0.040*[#  20]+0.036*[#  19]+0.031*[#  16]+0.025*[#   6]+0.023*[#   9]
          +0.022*[#  25]+0.019*[#  27]+0.017*[#  21]+0.012*[#  18]+0.010*[#  17]
          +0.008*[#   7]+0.008*[#  23]+0.008*[#   8]+0.006*[#  28]+0.003*[#  24]
          
    |psi|^2 = 0.985
==== e(  22) =     6.85097 eV ==== 
     psi = 0.251*[#  23]+0.123*[#  19]+0.084*[#  24]+0.076*[#  22]+0.070*[#  27]
          +0.054*[#  20]+0.042*[#   5]+0.042*[#   9]+0.041*[#  18]+0.034*[#   6]
          +0.028*[#  21]+0.025*[#  10]+0.023*[#  28]+0.021*[#  25]+0.018*[#  15]
          +0.014*[#   8]+0.011*[#   7]+0.007*[#  16]+0.002*[#  17]+0.001*[#  26]
          
    |psi|^2 = 0.969
==== e(  23) =     7.29932 eV ==== 
     psi = 0.266*[#  27]+0.125*[#   9]+0.112*[#  26]+0.089*[#  28]+0.069*[#  23]
          +0.041*[#   8]+0.036*[#  10]+0.034*[#  16]+0.029*[#  15]+0.023*[#  24]
          +0.023*[#  19]+0.021*[#  20]+0.020*[#   6]+0.019*[#  22]+0.016*[#  25]
          +0.014*[#  21]+0.011*[#  17]+0.008*[#  18]+0.007*[#   7]+0.004*[#   5]
          
    |psi|^2 = 0.966
==== e(  24) =     7.92395 eV ==== 
     psi = 0.287*[#  28]+0.280*[#  24]+0.095*[#  27]+0.093*[#  23]+0.065*[#  18]
          +0.065*[#   8]+0.022*[#   9]+0.022*[#  19]+0.017*[#  17]+0.014*[#   7]
          +0.006*[#  16]+0.005*[#   6]
    |psi|^2 = 0.972
==== e(  25) =     8.65141 eV ==== 
     psi = 0.313*[#  22]+0.289*[#  26]+0.082*[#  23]+0.078*[#   5]+0.077*[#  15]
          +0.047*[#  27]+0.027*[#  24]+0.023*[#  19]+0.016*[#  28]+0.008*[#  18]
          +0.007*[#  16]+0.004*[#   6]+0.004*[#   9]+0.002*[#  17]+0.002*[#  10]
          +0.001*[#   7]+0.001*[#   8]
    |psi|^2 = 0.983
==== e(  26) =     8.72584 eV ==== 
     psi = 0.291*[#  24]+0.284*[#  28]+0.097*[#  23]+0.095*[#  27]+0.047*[#  18]
          +0.047*[#   8]+0.035*[#   7]+0.034*[#  17]+0.015*[#   9]+0.015*[#  19]
          +0.012*[#   6]+0.011*[#  16]
    |psi|^2 = 0.983
==== e(  27) =    12.86397 eV ==== 
     psi = 0.282*[#  10]+0.275*[#  20]+0.068*[#  27]+0.067*[#  25]+0.065*[#  21]
          +0.065*[#  23]+0.032*[#  26]+0.031*[#  22]+0.023*[#  28]+0.022*[#  24]
          
    |psi|^2 = 0.932
==== e(  28) =    15.36439 eV ==== 
     psi = 0.292*[#  10]+0.281*[#  20]+0.063*[#  22]+0.059*[#  26]+0.025*[#  23]
          +0.025*[#  27]+0.022*[#  25]+0.021*[#  21]+0.008*[#  24]+0.008*[#  28]
          +0.001*[#   1]+0.001*[#  11]
    |psi|^2 = 0.810
==== e(  29) =    17.78583 eV ==== 
     psi = 0.055*[#  20]+0.022*[#  23]+0.021*[#  10]+0.015*[#  26]+0.011*[#  22]
          +0.008*[#  27]+0.007*[#  24]+0.003*[#  21]+0.003*[#  28]+0.001*[#   5]
          
    |psi|^2 = 0.149
==== e(  30) =    18.90766 eV ==== 
     psi = 0.017*[#  27]+0.016*[#  10]+0.012*[#  20]+0.009*[#  23]+0.006*[#  28]
          +0.003*[#  24]+0.003*[#  26]+0.002*[#  22]+0.002*[#  25]+0.001*[#   9]
          +0.001*[#  21]
    |psi|^2 = 0.073
==== e(  31) =    20.56864 eV ==== 
     psi = 0.027*[#  10]+0.015*[#  26]+0.011*[#  22]+0.008*[#  20]+0.008*[#  27]
          +0.004*[#  23]+0.003*[#  28]+0.001*[#  24]
    |psi|^2 = 0.081
==== e(  32) =    21.78743 eV ==== 
     psi = 0.005*[#  22]+0.002*[#  20]+0.002*[#  23]
    |psi|^2 = 0.013
==== e(  33) =    22.53527 eV ==== 
     psi = 0.009*[#  28]+0.003*[#  24]+0.003*[#  27]+0.001*[#  23]
    |psi|^2 = 0.017
==== e(  34) =    23.11524 eV ==== 
     psi = 0.009*[#  24]+0.004*[#  28]+0.003*[#  23]+0.001*[#  27]
    |psi|^2 = 0.019
==== e(  35) =    24.59046 eV ==== 
     psi = 0.004*[#  20]+0.003*[#  22]+0.002*[#  23]+0.001*[#  10]
    |psi|^2 = 0.013
==== e(  36) =    27.70777 eV ==== 
     psi = 0.002*[#  26]
    |psi|^2 = 0.006
==== e(  37) =    27.94770 eV ==== 
 
    |psi|^2 = 0.001
==== e(  38) =    30.68529 eV ==== 
     psi = 0.002*[#  20]+0.001*[#  26]+0.001*[#  22]
    |psi|^2 = 0.006
==== e(  39) =    31.53625 eV ==== 
 
    |psi|^2 = 0.004
==== e(  40) =    32.65677 eV ==== 
 
    |psi|^2 = 0.001
==== e(  41) =    33.46506 eV ==== 
 
    |psi|^2 = 0.003
==== e(  42) =    34.16994 eV ==== 
 
    |psi|^2 = 0.002
==== e(  43) =    34.76571 eV ==== 
 
    |psi|^2 = 0.001
==== e(  44) =    36.64563 eV ==== 
 
    |psi|^2 = 0.002
==== e(  45) =    36.73054 eV ==== 
     psi = 0.002*[#  24]+0.002*[#  28]
    |psi|^2 = 0.005
==== e(  46) =    37.32698 eV ==== 
     psi = 0.001*[#  23]
    |psi|^2 = 0.003
==== e(  47) =    37.64800 eV ==== 
     psi = 0.002*[#  27]
    |psi|^2 = 0.004
==== e(  48) =    39.64569 eV ==== 
 
    |psi|^2 = 0.002
==== e(  49) =    39.84535 eV ==== 
 
    |psi|^2 = 0.003
==== e(  50) =    41.06251 eV ==== 
 
    |psi|^2 = 0.002
==== e(  51) =    41.97553 eV ==== 
 
    |psi|^2 = 0.002
==== e(  52) =    43.84990 eV ==== 
 
    |psi|^2 = 0.000

 k =   0.5000000000 -0.2886751346  0.0000000000
==== e(   1) =  -115.91948 eV ==== 
     psi = 0.707*[#  11]+0.289*[#   1]+0.002*[#  23]
    |psi|^2 = 1.000
==== e(   2) =  -115.91940 eV ==== 
     psi = 0.705*[#   1]+0.288*[#  11]+0.002*[#  27]+0.001*[#  10]
    |psi|^2 = 1.000
==== e(   3) =   -69.57407 eV ==== 
     psi = 0.375*[#  13]+0.374*[#   3]+0.125*[#  14]+0.125*[#   4]
    |psi|^2 = 1.000
==== e(   4) =   -69.56681 eV ==== 
     psi = 0.533*[#   2]+0.466*[#  12]
    |psi|^2 = 1.000
==== e(   5) =   -69.56254 eV ==== 
     psi = 0.531*[#  12]+0.464*[#   2]+0.002*[#   3]+0.002*[#  13]
    |psi|^2 = 1.000
==== e(   6) =   -69.55971 eV ==== 
     psi = 0.370*[#   3]+0.369*[#  13]+0.128*[#   4]+0.128*[#  14]+0.002*[#  12]
          +0.002*[#   2]
    |psi|^2 = 1.000
==== e(   7) =   -69.55518 eV ==== 
     psi = 0.372*[#  14]+0.370*[#   4]+0.129*[#  13]+0.128*[#   3]
    |psi|^2 = 1.000
==== e(   8) =   -69.54917 eV ==== 
     psi = 0.376*[#   4]+0.373*[#  14]+0.126*[#   3]+0.125*[#  13]
    |psi|^2 = 1.000
==== e(   9) =    -7.85113 eV ==== 
     psi = 0.439*[#  21]+0.439*[#  25]+0.045*[#  10]+0.044*[#  20]+0.007*[#   9]
          +0.007*[#  19]+0.003*[#   6]+0.003*[#  16]+0.002*[#   8]+0.002*[#  18]
          +0.002*[#   5]+0.002*[#  15]
    |psi|^2 = 0.997
==== e(  10) =    -7.61690 eV ==== 
     psi = 0.476*[#  21]+0.476*[#  25]+0.007*[#   5]+0.007*[#  15]+0.006*[#   9]
          +0.006*[#  19]+0.003*[#   6]+0.003*[#  16]+0.002*[#   8]+0.002*[#  18]
          
    |psi|^2 = 0.994
==== e(  11) =     3.07620 eV ==== 
     psi = 0.140*[#   6]+0.140*[#  16]+0.091*[#  23]+0.091*[#  27]+0.080*[#   5]
          +0.080*[#  15]+0.047*[#   7]+0.047*[#  17]+0.042*[#   9]+0.042*[#  19]
          +0.037*[#  22]+0.037*[#  26]+0.030*[#  24]+0.030*[#  28]+0.018*[#  10]
          +0.018*[#  20]+0.014*[#   8]+0.014*[#  18]
    |psi|^2 = 0.997
==== e(  12) =     3.36089 eV ==== 
     psi = 0.143*[#  23]+0.143*[#  27]+0.133*[#   9]+0.133*[#  19]+0.072*[#  10]
          +0.072*[#  20]+0.047*[#  24]+0.047*[#  28]+0.044*[#   8]+0.044*[#  18]
          +0.025*[#  22]+0.025*[#  26]+0.020*[#   5]+0.020*[#  15]+0.008*[#   6]
          +0.008*[#  16]+0.003*[#   7]+0.003*[#  17]+0.001*[#  21]+0.001*[#  25]
          
    |psi|^2 = 0.992
==== e(  13) =     3.51125 eV ==== 
     psi = 0.237*[#   7]+0.237*[#  17]+0.079*[#   6]+0.079*[#  16]+0.075*[#  24]
          +0.075*[#  28]+0.063*[#   8]+0.063*[#  18]+0.025*[#  23]+0.025*[#  27]
          +0.020*[#   9]+0.020*[#  19]
    |psi|^2 = 0.999
==== e(  14) =     3.92465 eV ==== 
     psi = 0.251*[#   5]+0.250*[#  15]+0.102*[#   6]+0.101*[#  16]+0.046*[#  22]
          +0.046*[#  26]+0.034*[#   7]+0.034*[#  17]+0.025*[#  19]+0.025*[#   9]
          +0.016*[#  23]+0.016*[#  27]+0.013*[#  10]+0.013*[#  20]+0.008*[#   8]
          +0.008*[#  18]+0.005*[#  24]+0.005*[#  28]
    |psi|^2 = 0.999
==== e(  15) =     3.95328 eV ==== 
     psi = 0.147*[#  15]+0.146*[#   5]+0.101*[#  26]+0.101*[#  22]+0.070*[#  16]
          +0.070*[#   6]+0.056*[#  23]+0.056*[#  27]+0.054*[#   9]+0.054*[#  19]
          +0.024*[#   7]+0.024*[#  17]+0.019*[#  24]+0.019*[#  28]+0.018*[#   8]
          +0.018*[#  18]+0.004*[#  10]+0.004*[#  20]
    |psi|^2 = 0.987
==== e(  16) =     3.96673 eV ==== 
     psi = 0.236*[#   8]+0.236*[#  18]+0.078*[#   9]+0.078*[#  19]+0.069*[#   7]
          +0.069*[#  17]+0.069*[#  24]+0.069*[#  28]+0.023*[#   6]+0.023*[#  16]
          +0.023*[#  23]+0.023*[#  27]
    |psi|^2 = 0.997
==== e(  17) =     4.37209 eV ==== 
     psi = 0.232*[#   6]+0.232*[#  16]+0.158*[#   5]+0.158*[#  15]+0.077*[#   7]
          +0.077*[#  17]+0.015*[#   9]+0.015*[#  19]+0.005*[#   8]+0.005*[#  18]
          +0.005*[#  10]+0.005*[#  20]+0.004*[#  23]+0.004*[#  27]+0.001*[#  24]
          +0.001*[#  28]
    |psi|^2 = 0.997
==== e(  18) =     4.48912 eV ==== 
     psi = 0.289*[#   8]+0.289*[#  18]+0.096*[#   9]+0.096*[#  19]+0.086*[#   7]
          +0.086*[#  17]+0.028*[#   6]+0.028*[#  16]
    |psi|^2 = 0.999
==== e(  19) =     4.59890 eV ==== 
     psi = 0.284*[#   7]+0.284*[#  17]+0.095*[#   6]+0.095*[#  16]+0.090*[#   8]
          +0.090*[#  18]+0.030*[#   9]+0.030*[#  19]
    |psi|^2 = 1.000
==== e(  20) =     4.73013 eV ==== 
     psi = 0.285*[#   9]+0.285*[#  19]+0.096*[#   5]+0.096*[#  15]+0.095*[#   8]
          +0.095*[#  18]+0.008*[#  21]+0.008*[#  25]+0.005*[#  23]+0.005*[#  27]
          +0.004*[#  10]+0.004*[#  20]+0.003*[#   6]+0.003*[#  16]+0.002*[#  24]
          +0.002*[#  28]
    |psi|^2 = 0.998
==== e(  21) =     5.28286 eV ==== 
     psi = 0.128*[#   5]+0.128*[#  15]+0.117*[#   9]+0.117*[#  19]+0.082*[#  23]
          +0.082*[#  27]+0.039*[#   8]+0.039*[#  18]+0.037*[#   6]+0.037*[#  16]
          +0.035*[#  10]+0.035*[#  20]+0.027*[#  24]+0.027*[#  28]+0.018*[#  21]
          +0.018*[#  25]+0.012*[#   7]+0.012*[#  17]
    |psi|^2 = 0.993
==== e(  22) =     5.54315 eV ==== 
     psi = 0.152*[#  23]+0.152*[#  27]+0.103*[#   6]+0.103*[#  16]+0.068*[#  22]
          +0.068*[#  26]+0.065*[#  10]+0.065*[#  20]+0.051*[#  24]+0.051*[#  28]
          +0.034*[#   7]+0.034*[#  17]+0.014*[#  21]+0.014*[#  25]+0.001*[#   9]
          +0.001*[#  19]
    |psi|^2 = 0.979
==== e(  23) =     6.36890 eV ==== 
     psi = 0.323*[#  22]+0.323*[#  26]+0.048*[#   9]+0.048*[#  19]+0.038*[#   5]
          +0.038*[#  15]+0.024*[#   6]+0.024*[#  16]+0.019*[#  10]+0.019*[#  20]
          +0.016*[#   8]+0.016*[#  18]+0.008*[#   7]+0.008*[#  17]+0.002*[#  23]
          +0.002*[#  27]
    |psi|^2 = 0.958
==== e(  24) =     6.98291 eV ==== 
     psi = 0.292*[#  24]+0.292*[#  28]+0.097*[#  23]+0.097*[#  27]+0.048*[#   8]
          +0.048*[#  18]+0.021*[#   7]+0.021*[#  17]+0.016*[#   9]+0.016*[#  19]
          +0.007*[#   6]+0.007*[#  16]
    |psi|^2 = 0.965
==== e(  25) =     7.99360 eV ==== 
     psi = 0.320*[#  22]+0.320*[#  26]+0.068*[#   5]+0.068*[#  15]+0.025*[#  23]
          +0.025*[#  27]+0.025*[#   6]+0.025*[#  16]+0.014*[#   9]+0.014*[#  19]
          +0.009*[#  24]+0.009*[#  28]+0.008*[#   7]+0.008*[#  17]+0.005*[#   8]
          +0.005*[#  18]+0.002*[#  10]+0.002*[#  20]+0.001*[#  21]+0.001*[#  25]
          
    |psi|^2 = 0.953
==== e(  26) =     8.41986 eV ==== 
     psi = 0.292*[#  24]+0.292*[#  28]+0.097*[#  23]+0.097*[#  27]+0.051*[#   7]
          +0.051*[#  17]+0.024*[#   8]+0.024*[#  18]+0.017*[#   6]+0.017*[#  16]
          +0.008*[#   9]+0.008*[#  19]
    |psi|^2 = 0.980
==== e(  27) =    14.92717 eV ==== 
     psi = 0.313*[#  10]+0.313*[#  20]+0.064*[#  23]+0.064*[#  27]+0.034*[#  21]
          +0.034*[#  25]+0.021*[#  24]+0.021*[#  28]
    |psi|^2 = 0.871
==== e(  28) =    16.07255 eV ==== 
     psi = 0.013*[#  10]+0.013*[#  20]+0.011*[#  23]+0.011*[#  27]+0.004*[#  24]
          +0.004*[#  28]+0.002*[#  21]+0.002*[#  25]+0.001*[#   9]+0.001*[#  19]
          
    |psi|^2 = 0.061
==== e(  29) =    16.86869 eV ==== 
     psi = 0.022*[#  22]+0.022*[#  26]+0.019*[#  10]+0.019*[#  20]+0.005*[#  23]
          +0.005*[#  27]+0.002*[#  24]+0.002*[#  28]+0.001*[#   5]+0.001*[#  15]
          +0.001*[#   9]+0.001*[#  19]
    |psi|^2 = 0.104
==== e(  30) =    17.55835 eV ==== 
     psi = 0.323*[#  10]+0.323*[#  20]+0.073*[#  23]+0.073*[#  27]+0.024*[#  24]
          +0.024*[#  28]+0.018*[#  22]+0.018*[#  26]+0.002*[#   1]+0.002*[#  11]
          
    |psi|^2 = 0.882
==== e(  31) =    19.80886 eV ==== 
     psi = 0.029*[#  22]+0.029*[#  26]+0.023*[#  10]+0.023*[#  20]+0.001*[#   5]
          +0.001*[#  15]
    |psi|^2 = 0.107
==== e(  32) =    21.57370 eV ==== 
     psi = 0.014*[#  10]+0.014*[#  20]+0.013*[#  23]+0.013*[#  27]+0.004*[#  24]
          +0.004*[#  28]
    |psi|^2 = 0.066
==== e(  33) =    22.47806 eV ==== 
     psi = 0.003*[#  24]+0.003*[#  28]+0.001*[#  23]+0.001*[#  27]
    |psi|^2 = 0.010
==== e(  34) =    23.43313 eV ==== 
     psi = 0.013*[#  24]+0.013*[#  28]+0.004*[#  23]+0.004*[#  27]
    |psi|^2 = 0.035
==== e(  35) =    24.99128 eV ==== 
     psi = 0.002*[#  22]+0.002*[#  26]+0.001*[#  10]+0.001*[#  20]
    |psi|^2 = 0.009
==== e(  36) =    27.80423 eV ==== 
     psi = 0.002*[#  10]+0.002*[#  20]+0.001*[#  21]+0.001*[#  25]
    |psi|^2 = 0.009
==== e(  37) =    28.35900 eV ==== 
     psi = 0.002*[#  10]+0.002*[#  20]+0.002*[#  23]+0.002*[#  27]
    |psi|^2 = 0.012
==== e(  38) =    29.70736 eV ==== 
     psi = 0.003*[#  24]+0.003*[#  28]
    |psi|^2 = 0.008
==== e(  39) =    32.32281 eV ==== 
     psi = 0.001*[#  22]+0.001*[#  26]
    |psi|^2 = 0.003
==== e(  40) =    34.02585 eV ==== 
 
    |psi|^2 = 0.004
==== e(  41) =    34.25491 eV ==== 
     psi = 0.001*[#  10]+0.001*[#  20]
    |psi|^2 = 0.005
==== e(  42) =    35.19430 eV ==== 
 
    |psi|^2 = 0.000
==== e(  43) =    36.63198 eV ==== 
 
    |psi|^2 = 0.001
==== e(  44) =    36.80021 eV ==== 
 
    |psi|^2 = 0.001
==== e(  45) =    37.57749 eV ==== 
 
    |psi|^2 = 0.001
==== e(  46) =    38.62754 eV ==== 
     psi = 0.002*[#  22]+0.002*[#  26]
    |psi|^2 = 0.004
==== e(  47) =    40.58600 eV ==== 
 
    |psi|^2 = 0.000
==== e(  48) =    41.86698 eV ==== 
 
    |psi|^2 = 0.000
==== e(  49) =    42.00771 eV ==== 
 
    |psi|^2 = 0.000
==== e(  50) =    42.49429 eV ==== 
 
    |psi|^2 = 0.002
==== e(  51) =    42.59033 eV ==== 
 
    |psi|^2 = 0.000
==== e(  52) =    43.69579 eV ==== 
 
    |psi|^2 = 0.000

 k =   0.5000000000 -0.2886751346 -0.1560513011
==== e(   1) =  -115.91954 eV ==== 
     psi = 0.808*[#  11]+0.187*[#   1]+0.002*[#  23]
    |psi|^2 = 1.000
==== e(   2) =  -115.91949 eV ==== 
     psi = 0.808*[#   1]+0.186*[#  11]+0.002*[#  27]+0.001*[#  10]
    |psi|^2 = 1.000
==== e(   3) =   -69.59810 eV ==== 
     psi = 0.321*[#  13]+0.314*[#   3]+0.108*[#  14]+0.105*[#   4]+0.082*[#   2]
          +0.069*[#  12]
    |psi|^2 = 1.000
==== e(   4) =   -69.59509 eV ==== 
     psi = 0.454*[#   2]+0.431*[#  12]+0.049*[#   3]+0.036*[#  13]+0.017*[#   4]
          +0.013*[#  14]
    |psi|^2 = 1.000
==== e(   5) =   -69.58930 eV ==== 
     psi = 0.439*[#  12]+0.409*[#   2]+0.061*[#  13]+0.052*[#   3]+0.020*[#  14]
          +0.017*[#   4]
    |psi|^2 = 1.000
==== e(   6) =   -69.58444 eV ==== 
     psi = 0.226*[#   4]+0.225*[#  14]+0.222*[#   3]+0.218*[#  13]+0.057*[#  12]
          +0.051*[#   2]
    |psi|^2 = 1.000
==== e(   7) =   -69.58434 eV ==== 
     psi = 0.260*[#  14]+0.258*[#   4]+0.237*[#   3]+0.237*[#  13]+0.004*[#  12]
          +0.003*[#   2]
    |psi|^2 = 1.000
==== e(   8) =   -69.57303 eV ==== 
     psi = 0.375*[#   4]+0.374*[#  14]+0.125*[#   3]+0.125*[#  13]
    |psi|^2 = 1.000
==== e(   9) =    -7.81285 eV ==== 
     psi = 0.447*[#  21]+0.447*[#  25]+0.036*[#  10]+0.036*[#  20]+0.007*[#   9]
          +0.007*[#  19]+0.003*[#   6]+0.003*[#  16]+0.002*[#   8]+0.002*[#  18]
          +0.002*[#   5]+0.002*[#  15]
    |psi|^2 = 0.996
==== e(  10) =    -7.64697 eV ==== 
     psi = 0.474*[#  21]+0.474*[#  25]+0.006*[#   9]+0.006*[#  19]+0.006*[#   5]
          +0.006*[#  15]+0.004*[#  10]+0.004*[#  20]+0.003*[#   6]+0.003*[#  16]
          +0.002*[#   8]+0.002*[#  18]
    |psi|^2 = 0.994
==== e(  11) =     2.98241 eV ==== 
     psi = 0.124*[#   6]+0.124*[#  16]+0.090*[#  23]+0.090*[#  27]+0.071*[#   5]
          +0.071*[#  15]+0.050*[#  22]+0.050*[#  26]+0.045*[#   9]+0.045*[#  19]
          +0.041*[#   7]+0.041*[#  17]+0.031*[#  10]+0.031*[#  20]+0.030*[#  24]
          +0.030*[#  28]+0.015*[#   8]+0.015*[#  18]+0.001*[#  21]+0.001*[#  25]
          
    |psi|^2 = 0.996
==== e(  12) =     3.14709 eV ==== 
     psi = 0.111*[#  23]+0.111*[#  27]+0.098*[#   9]+0.098*[#  19]+0.067*[#  10]
          +0.067*[#  20]+0.061*[#   6]+0.061*[#  16]+0.056*[#  22]+0.056*[#  26]
          +0.037*[#  24]+0.037*[#  28]+0.032*[#   8]+0.032*[#  18]+0.020*[#   7]
          +0.020*[#  17]+0.015*[#   5]+0.015*[#  15]
    |psi|^2 = 0.995
==== e(  13) =     3.52480 eV ==== 
     psi = 0.228*[#   7]+0.228*[#  17]+0.076*[#   6]+0.076*[#  16]+0.074*[#  24]
          +0.074*[#  28]+0.072*[#   8]+0.072*[#  18]+0.025*[#  23]+0.025*[#  27]
          +0.024*[#   9]+0.024*[#  19]
    |psi|^2 = 0.998
==== e(  14) =     3.83221 eV ==== 
     psi = 0.274*[#   5]+0.271*[#  15]+0.078*[#   6]+0.077*[#  16]+0.047*[#  22]
          +0.046*[#  26]+0.032*[#  23]+0.032*[#  27]+0.027*[#   7]+0.027*[#  17]
          +0.016*[#  19]+0.016*[#   9]+0.011*[#  10]+0.011*[#  20]+0.009*[#  24]
          +0.009*[#  28]+0.007*[#   8]+0.007*[#  18]
    |psi|^2 = 0.996
==== e(  15) =     3.83902 eV ==== 
     psi = 0.187*[#   8]+0.187*[#  18]+0.115*[#   7]+0.115*[#  17]+0.071*[#  24]
          +0.071*[#  28]+0.064*[#   9]+0.064*[#  19]+0.039*[#   6]+0.039*[#  16]
          +0.022*[#  23]+0.022*[#  27]
    |psi|^2 = 0.997
==== e(  16) =     3.84430 eV ==== 
     psi = 0.262*[#  15]+0.259*[#   5]+0.071*[#  26]+0.071*[#  22]+0.069*[#  27]
          +0.069*[#  23]+0.027*[#   9]+0.027*[#  19]+0.023*[#  28]+0.023*[#  24]
          +0.018*[#  16]+0.018*[#   6]+0.009*[#   8]+0.009*[#  18]+0.007*[#  10]
          +0.007*[#  20]+0.006*[#  17]+0.006*[#   7]+0.002*[#  21]+0.002*[#  25]
          
    |psi|^2 = 0.986
==== e(  17) =     4.44352 eV ==== 
     psi = 0.278*[#   8]+0.278*[#  18]+0.096*[#   7]+0.096*[#  17]+0.092*[#   9]
          +0.092*[#  19]+0.032*[#   6]+0.032*[#  16]
    |psi|^2 = 1.000
==== e(  18) =     4.46941 eV ==== 
     psi = 0.181*[#   6]+0.181*[#  16]+0.115*[#   9]+0.115*[#  19]+0.087*[#   5]
          +0.087*[#  15]+0.061*[#   7]+0.061*[#  17]+0.038*[#   8]+0.038*[#  18]
          +0.005*[#  23]+0.005*[#  27]+0.005*[#  21]+0.005*[#  25]+0.003*[#  10]
          +0.003*[#  20]+0.002*[#  24]+0.002*[#  28]
    |psi|^2 = 0.992
==== e(  19) =     4.48566 eV ==== 
     psi = 0.229*[#   7]+0.229*[#  17]+0.146*[#   8]+0.146*[#  18]+0.076*[#   6]
          +0.076*[#  16]+0.049*[#   9]+0.049*[#  19]
    |psi|^2 = 1.000
==== e(  20) =     4.67911 eV ==== 
     psi = 0.284*[#   9]+0.284*[#  19]+0.095*[#   8]+0.095*[#  18]+0.081*[#   5]
          +0.081*[#  15]+0.017*[#   6]+0.017*[#  16]+0.010*[#  21]+0.010*[#  25]
          +0.006*[#   7]+0.006*[#  17]+0.003*[#  10]+0.003*[#  20]+0.002*[#  23]
          +0.002*[#  27]
    |psi|^2 = 0.996
==== e(  21) =     5.15786 eV ==== 
     psi = 0.107*[#   6]+0.107*[#  16]+0.098*[#   9]+0.098*[#  19]+0.075*[#  23]
          +0.075*[#  27]+0.060*[#   5]+0.060*[#  15]+0.041*[#  10]+0.041*[#  20]
          +0.036*[#   7]+0.036*[#  17]+0.033*[#   8]+0.033*[#  18]+0.025*[#  24]
          +0.025*[#  28]+0.016*[#  22]+0.016*[#  26]+0.007*[#  21]+0.007*[#  25]
          
    |psi|^2 = 0.996
==== e(  22) =     5.40530 eV ==== 
     psi = 0.138*[#   6]+0.138*[#  16]+0.130*[#  23]+0.130*[#  27]+0.061*[#  10]
          +0.061*[#  20]+0.054*[#  22]+0.054*[#  26]+0.046*[#   7]+0.046*[#  17]
          +0.043*[#  24]+0.043*[#  28]+0.008*[#  21]+0.008*[#  25]+0.008*[#   9]
          +0.008*[#  19]+0.003*[#   8]+0.003*[#  18]+0.002*[#   5]+0.002*[#  15]
          
    |psi|^2 = 0.983
==== e(  23) =     6.98575 eV ==== 
     psi = 0.304*[#  22]+0.304*[#  26]+0.070*[#   5]+0.070*[#  15]+0.032*[#  23]
          +0.032*[#  27]+0.030*[#   9]+0.030*[#  19]+0.014*[#  10]+0.014*[#  20]
          +0.011*[#  24]+0.011*[#  28]+0.010*[#   8]+0.010*[#  18]+0.004*[#   6]
          +0.004*[#  16]+0.004*[#  21]+0.004*[#  25]+0.002*[#   7]+0.002*[#  17]
          
    |psi|^2 = 0.963
==== e(  24) =     7.18358 eV ==== 
     psi = 0.291*[#  24]+0.291*[#  28]+0.097*[#  23]+0.097*[#  27]+0.040*[#   8]
          +0.040*[#  18]+0.031*[#   7]+0.031*[#  17]+0.013*[#   9]+0.013*[#  19]
          +0.010*[#   6]+0.010*[#  16]
    |psi|^2 = 0.966
==== e(  25) =     8.14255 eV ==== 
     psi = 0.317*[#  22]+0.317*[#  26]+0.069*[#   5]+0.069*[#  15]+0.045*[#  23]
          +0.045*[#  27]+0.015*[#  24]+0.015*[#  28]+0.014*[#   6]+0.014*[#  16]
          +0.013*[#   9]+0.013*[#  19]+0.005*[#   7]+0.005*[#  17]+0.004*[#   8]
          +0.004*[#  18]+0.001*[#  10]+0.001*[#  20]
    |psi|^2 = 0.969
==== e(  26) =     8.20001 eV ==== 
[...]
          
    |psi|^2 = 0.998
==== e(  16) =     3.76221 eV ==== 
     psi = 0.288*[#  15]+0.170*[#  19]+0.122*[#  18]+0.113*[#  24]+0.062*[#  17]
          +0.061*[#   9]+0.048*[#   7]+0.041*[#  16]+0.032*[#  23]+0.023*[#  26]
          +0.012*[#  20]+0.011*[#  27]+0.008*[#   6]+0.004*[#  28]+0.003*[#  10]
          
    |psi|^2 = 0.998
==== e(  17) =     4.37339 eV ==== 
     psi = 0.366*[#   8]+0.147*[#  16]+0.102*[#   9]+0.101*[#   5]+0.095*[#   7]
          +0.089*[#  17]+0.042*[#  19]+0.042*[#  18]+0.007*[#   6]+0.002*[#  22]
          +0.002*[#  24]+0.001*[#  23]
    |psi|^2 = 0.999
==== e(  18) =     4.37340 eV ==== 
     psi = 0.366*[#  18]+0.147*[#   6]+0.102*[#  19]+0.101*[#  15]+0.095*[#  17]
          +0.089*[#   7]+0.042*[#   9]+0.042*[#   8]+0.007*[#  16]+0.002*[#  26]
          +0.002*[#  28]+0.001*[#  27]
    |psi|^2 = 0.999
==== e(  19) =     4.67037 eV ==== 
     psi = 0.274*[#   6]+0.271*[#  18]+0.202*[#  19]+0.122*[#   5]+0.039*[#  16]
          +0.033*[#  17]+0.012*[#  21]+0.010*[#   8]+0.009*[#  20]+0.007*[#  23]
          +0.006*[#   7]+0.005*[#  26]+0.002*[#  25]+0.001*[#  24]+0.001*[#  27]
          
    |psi|^2 = 0.997
==== e(  20) =     4.67039 eV ==== 
     psi = 0.274*[#  16]+0.271*[#   8]+0.202*[#   9]+0.122*[#  15]+0.039*[#   6]
          +0.033*[#   7]+0.012*[#  25]+0.010*[#  18]+0.009*[#  10]+0.007*[#  27]
          +0.006*[#  17]+0.005*[#  22]+0.002*[#  21]+0.001*[#  28]+0.001*[#  23]
          
    |psi|^2 = 0.997
==== e(  21) =     5.60109 eV ==== 
     psi = 0.208*[#  23]+0.116*[#  17]+0.109*[#  19]+0.096*[#  20]+0.090*[#   9]
          +0.068*[#  16]+0.062*[#   6]+0.048*[#  26]+0.037*[#   5]+0.031*[#  24]
          +0.029*[#  28]+0.024*[#  27]+0.018*[#  21]+0.017*[#   7]+0.012*[#  22]
          +0.012*[#  10]+0.005*[#  25]+0.004*[#   8]+0.002*[#  15]
    |psi|^2 = 0.989
==== e(  22) =     5.60109 eV ==== 
     psi = 0.208*[#  27]+0.116*[#   7]+0.109*[#   9]+0.096*[#  10]+0.090*[#  19]
          +0.068*[#   6]+0.062*[#  16]+0.048*[#  22]+0.037*[#  15]+0.031*[#  28]
          +0.029*[#  24]+0.024*[#  23]+0.018*[#  25]+0.017*[#  17]+0.012*[#  26]
          +0.012*[#  20]+0.005*[#  21]+0.004*[#  18]+0.002*[#   5]
    |psi|^2 = 0.989
==== e(  23) =     6.97199 eV ==== 
     psi = 0.381*[#  24]+0.183*[#  28]+0.111*[#  23]+0.084*[#   7]+0.044*[#  18]
          +0.035*[#   6]+0.027*[#  16]+0.024*[#  17]+0.015*[#  26]+0.013*[#   8]
          +0.007*[#  19]+0.006*[#  15]+0.003*[#  27]+0.003*[#   5]+0.003*[#  10]
          +0.002*[#   9]+0.002*[#  22]+0.001*[#  21]
    |psi|^2 = 0.945
==== e(  24) =     6.97199 eV ==== 
     psi = 0.381*[#  28]+0.183*[#  24]+0.111*[#  27]+0.084*[#  17]+0.044*[#   8]
          +0.035*[#  16]+0.027*[#   6]+0.024*[#   7]+0.015*[#  22]+0.013*[#  18]
          +0.007*[#   9]+0.006*[#   5]+0.003*[#  23]+0.003*[#  15]+0.003*[#  20]
          +0.002*[#  19]+0.002*[#  26]+0.001*[#  25]
    |psi|^2 = 0.945
==== e(  25) =     8.00358 eV ==== 
     psi = 0.566*[#  22]+0.133*[#   5]+0.110*[#  27]+0.069*[#  28]+0.031*[#  19]
          +0.017*[#  23]+0.015*[#  18]+0.015*[#  26]+0.004*[#  24]+0.003*[#   8]
          +0.002*[#  15]+0.002*[#  20]+0.002*[#  16]+0.002*[#  17]+0.001*[#   7]
          +0.001*[#  25]
    |psi|^2 = 0.974
==== e(  26) =     8.00362 eV ==== 
     psi = 0.566*[#  26]+0.133*[#  15]+0.110*[#  23]+0.069*[#  24]+0.031*[#   9]
          +0.017*[#  27]+0.015*[#   8]+0.015*[#  22]+0.004*[#  28]+0.003*[#  18]
          +0.002*[#   5]+0.002*[#  10]+0.002*[#   6]+0.002*[#   7]+0.001*[#  17]
          +0.001*[#  21]
    |psi|^2 = 0.974
==== e(  27) =    15.66382 eV ==== 
     psi = 0.370*[#  20]+0.070*[#  23]+0.038*[#  26]+0.013*[#  21]+0.012*[#  25]
          +0.010*[#  27]+0.008*[#  22]+0.005*[#  10]+0.002*[#  11]+0.001*[#  19]
          
    |psi|^2 = 0.532
==== e(  28) =    15.66389 eV ==== 
     psi = 0.370*[#  10]+0.070*[#  27]+0.038*[#  22]+0.013*[#  25]+0.012*[#  21]
          +0.010*[#  23]+0.008*[#  26]+0.005*[#  20]+0.002*[#   1]+0.001*[#   9]
          
    |psi|^2 = 0.532
==== e(  29) =    17.92797 eV ==== 
     psi = 0.234*[#  10]+0.065*[#  28]+0.038*[#  27]+0.030*[#  20]+0.022*[#  22]
          +0.007*[#  25]+0.006*[#  24]+0.003*[#  23]+0.001*[#   1]
    |psi|^2 = 0.410
==== e(  30) =    17.92800 eV ==== 
     psi = 0.234*[#  20]+0.065*[#  24]+0.038*[#  23]+0.030*[#  10]+0.022*[#  26]
          +0.007*[#  21]+0.006*[#  28]+0.003*[#  27]+0.001*[#  11]
    |psi|^2 = 0.411
==== e(  31) =    19.00842 eV ==== 
     psi = 0.059*[#  20]+0.040*[#  23]+0.004*[#  22]+0.004*[#  26]+0.003*[#  10]
          +0.001*[#  17]+0.001*[#  27]
    |psi|^2 = 0.116
==== e(  32) =    19.00847 eV ==== 
     psi = 0.059*[#  10]+0.040*[#  27]+0.004*[#  26]+0.004*[#  22]+0.003*[#  20]
          +0.001*[#   7]+0.001*[#  23]
    |psi|^2 = 0.116
==== e(  33) =    23.50269 eV ==== 
     psi = 0.006*[#  26]+0.002*[#  22]
    |psi|^2 = 0.011
==== e(  34) =    23.50274 eV ==== 
     psi = 0.006*[#  22]+0.002*[#  26]
    |psi|^2 = 0.011
==== e(  35) =    25.98051 eV ==== 
     psi = 0.003*[#  22]+0.002*[#  27]+0.002*[#  26]+0.002*[#  20]
    |psi|^2 = 0.011
==== e(  36) =    25.98056 eV ==== 
     psi = 0.003*[#  26]+0.002*[#  23]+0.002*[#  22]+0.002*[#  10]
    |psi|^2 = 0.011
==== e(  37) =    29.20623 eV ==== 
     psi = 0.003*[#  23]+0.001*[#  20]
    |psi|^2 = 0.007
==== e(  38) =    29.20627 eV ==== 
     psi = 0.003*[#  27]+0.001*[#  10]
    |psi|^2 = 0.007
==== e(  39) =    32.57963 eV ==== 
     psi = 0.003*[#  24]
    |psi|^2 = 0.006
==== e(  40) =    32.57967 eV ==== 
     psi = 0.003*[#  28]
    |psi|^2 = 0.006
==== e(  41) =    34.56385 eV ==== 
     psi = 0.001*[#  22]
    |psi|^2 = 0.004
==== e(  42) =    34.56388 eV ==== 
 
    |psi|^2 = 0.004
==== e(  43) =    36.92880 eV ==== 
 
    |psi|^2 = 0.001
==== e(  44) =    36.92884 eV ==== 
 
    |psi|^2 = 0.001
==== e(  45) =    39.83263 eV ==== 
 
    |psi|^2 = 0.001
==== e(  46) =    39.83265 eV ==== 
 
    |psi|^2 = 0.001
==== e(  47) =    40.79560 eV ==== 
 
    |psi|^2 = 0.000
==== e(  48) =    40.79564 eV ==== 
 
    |psi|^2 = 0.000
==== e(  49) =    42.36594 eV ==== 
 
    |psi|^2 = 0.001
==== e(  50) =    42.36597 eV ==== 
 
    |psi|^2 = 0.001
==== e(  51) =    43.65634 eV ==== 
 
    |psi|^2 = 0.001
==== e(  52) =    43.65634 eV ==== 
 
    |psi|^2 = 0.001

 k =   0.5000000000  0.0000000000  0.1560513011
==== e(   1) =  -115.91953 eV ==== 
     psi = 0.644*[#  11]+0.351*[#   1]+0.001*[#  23]
    |psi|^2 = 1.000
==== e(   2) =  -115.91942 eV ==== 
     psi = 0.643*[#   1]+0.350*[#  11]+0.001*[#  27]+0.001*[#  10]
    |psi|^2 = 1.000
==== e(   3) =   -69.60403 eV ==== 
     psi = 0.356*[#  13]+0.355*[#   3]+0.138*[#   2]+0.136*[#  12]+0.007*[#   4]
          +0.007*[#  14]
    |psi|^2 = 1.000
==== e(   4) =   -69.58662 eV ==== 
     psi = 0.361*[#   2]+0.342*[#  12]+0.144*[#   3]+0.142*[#  13]+0.006*[#  14]
          +0.005*[#   4]
    |psi|^2 = 1.000
==== e(   5) =   -69.57863 eV ==== 
     psi = 0.346*[#  12]+0.327*[#   2]+0.128*[#   4]+0.126*[#  14]+0.037*[#  13]
          +0.034*[#   3]
    |psi|^2 = 1.000
==== e(   6) =   -69.57321 eV ==== 
     psi = 0.250*[#  13]+0.250*[#   3]+0.232*[#  14]+0.231*[#   4]+0.018*[#  12]
          +0.017*[#   2]
    |psi|^2 = 1.000
==== e(   7) =   -69.56253 eV ==== 
     psi = 0.214*[#   3]+0.213*[#  13]+0.146*[#  12]+0.144*[#   2]+0.143*[#  14]
          +0.139*[#   4]
    |psi|^2 = 1.000
==== e(   8) =   -69.55741 eV ==== 
     psi = 0.489*[#   4]+0.485*[#  14]+0.011*[#  12]+0.011*[#   2]+0.001*[#  13]
          +0.001*[#   3]
    |psi|^2 = 1.000
==== e(   9) =    -7.82237 eV ==== 
     psi = 0.443*[#  21]+0.443*[#  25]+0.041*[#  10]+0.041*[#  20]+0.006*[#   9]
          +0.006*[#  19]+0.003*[#   6]+0.003*[#   8]+0.003*[#  16]+0.003*[#  18]
          +0.002*[#   5]+0.002*[#  15]
    |psi|^2 = 0.997
==== e(  10) =    -7.64296 eV ==== 
     psi = 0.473*[#  21]+0.473*[#  25]+0.007*[#   9]+0.007*[#  19]+0.006*[#   5]
          +0.006*[#  15]+0.005*[#  10]+0.005*[#  20]+0.003*[#   6]+0.003*[#  16]
          +0.002*[#   8]+0.002*[#  18]
    |psi|^2 = 0.995
==== e(  11) =     3.20381 eV ==== 
     psi = 0.164*[#  16]+0.164*[#   6]+0.081*[#  27]+0.081*[#  23]+0.069*[#   7]
          +0.069*[#  17]+0.050*[#   9]+0.050*[#  19]+0.042*[#   8]+0.042*[#  18]
          +0.039*[#  22]+0.039*[#  26]+0.029*[#  24]+0.029*[#  28]+0.014*[#  10]
          +0.014*[#  20]+0.010*[#   5]+0.010*[#  15]
    |psi|^2 = 0.996
==== e(  12) =     3.22144 eV ==== 
     psi = 0.110*[#   6]+0.110*[#  16]+0.105*[#  23]+0.105*[#  27]+0.061*[#   5]
          +0.061*[#  15]+0.056*[#  22]+0.056*[#  26]+0.054*[#   9]+0.054*[#  19]
          +0.048*[#  10]+0.048*[#  20]+0.029*[#   7]+0.029*[#  17]+0.022*[#   8]
          +0.022*[#  18]+0.012*[#  24]+0.012*[#  28]
    |psi|^2 = 0.996
==== e(  13) =     3.57646 eV ==== 
     psi = 0.211*[#   7]+0.211*[#  17]+0.092*[#  19]+0.092*[#   9]+0.063*[#  22]
          +0.063*[#  26]+0.055*[#  24]+0.055*[#  28]+0.032*[#   5]+0.032*[#  15]
          +0.018*[#  10]+0.018*[#  20]+0.017*[#  23]+0.017*[#  27]+0.009*[#   8]
          +0.009*[#  18]
    |psi|^2 = 0.996
==== e(  14) =     3.60276 eV ==== 
     psi = 0.188*[#   5]+0.188*[#  15]+0.095*[#   9]+0.095*[#  19]+0.078*[#  23]
          +0.078*[#  27]+0.055*[#   7]+0.055*[#  17]+0.040*[#  22]+0.040*[#  26]
          +0.021*[#   8]+0.021*[#  18]+0.011*[#  24]+0.011*[#  28]+0.006*[#  10]
          +0.006*[#  20]+0.003*[#   6]+0.003*[#  16]
    |psi|^2 = 0.995
==== e(  15) =     3.86467 eV ==== 
     psi = 0.209*[#   5]+0.209*[#  15]+0.065*[#   9]+0.065*[#  19]+0.062*[#   8]
          +0.062*[#  18]+0.055*[#  23]+0.055*[#  27]+0.026*[#   6]+0.026*[#  16]
          +0.023*[#  22]+0.023*[#  26]+0.022*[#  24]+0.022*[#  28]+0.022*[#  10]
          +0.022*[#  20]+0.015*[#   7]+0.015*[#  17]
    |psi|^2 = 0.999
==== e(  16) =     3.88690 eV ==== 
     psi = 0.126*[#   7]+0.126*[#  17]+0.118*[#  18]+0.118*[#   8]+0.082*[#  24]
          +0.082*[#  28]+0.052*[#   9]+0.052*[#  19]+0.051*[#   6]+0.051*[#  15]
          +0.051*[#  16]+0.051*[#   5]+0.010*[#  22]+0.010*[#  26]+0.006*[#  23]
          +0.006*[#  27]+0.003*[#  10]+0.003*[#  20]
    |psi|^2 = 0.996
==== e(  17) =     4.29215 eV ==== 
     psi = 0.145*[#   6]+0.145*[#  16]+0.138*[#   9]+0.138*[#  19]+0.076*[#   5]
          +0.076*[#  15]+0.071*[#   7]+0.071*[#  17]+0.063*[#   8]+0.063*[#  18]
          +0.002*[#  22]+0.002*[#  26]+0.001*[#  10]+0.001*[#  20]+0.001*[#  24]
          +0.001*[#  28]
    |psi|^2 = 0.998
==== e(  18) =     4.45712 eV ==== 
     psi = 0.259*[#   8]+0.259*[#  18]+0.070*[#   6]+0.070*[#  16]+0.068*[#   7]
          +0.068*[#  17]+0.067*[#   5]+0.068*[#  15]+0.033*[#   9]+0.033*[#  19]
          +0.001*[#  22]+0.001*[#  26]+0.001*[#  23]+0.001*[#  27]
    |psi|^2 = 0.999
==== e(  19) =     4.58919 eV ==== 
     psi = 0.219*[#   8]+0.219*[#  18]+0.110*[#   7]+0.110*[#  17]+0.102*[#   6]
          +0.102*[#  16]+0.031*[#   5]+0.031*[#  15]+0.024*[#   9]+0.024*[#  19]
          +0.005*[#  23]+0.005*[#  27]+0.004*[#  10]+0.004*[#  20]+0.002*[#  21]
          +0.002*[#  25]+0.001*[#  22]+0.001*[#  26]
    |psi|^2 = 0.999
==== e(  20) =     4.81299 eV ==== 
     psi = 0.151*[#   6]+0.151*[#  16]+0.140*[#   9]+0.140*[#  19]+0.090*[#   5]
          +0.090*[#  15]+0.072*[#   8]+0.072*[#  18]+0.019*[#   7]+0.019*[#  17]
          +0.015*[#  21]+0.015*[#  25]+0.005*[#  22]+0.005*[#  26]+0.003*[#  10]
          +0.003*[#  20]+0.002*[#  23]+0.002*[#  24]+0.002*[#  27]+0.002*[#  28]
          
    |psi|^2 = 0.995
==== e(  21) =     5.33902 eV ==== 
     psi = 0.126*[#  23]+0.126*[#  27]+0.081*[#   9]+0.081*[#  19]+0.070*[#  10]
          +0.070*[#  20]+0.053*[#   7]+0.053*[#  17]+0.051*[#   6]+0.051*[#  16]
          +0.042*[#  22]+0.042*[#  26]+0.033*[#  24]+0.033*[#  28]+0.020*[#   8]
          +0.020*[#  18]+0.019*[#   5]+0.019*[#  15]+0.003*[#  21]+0.003*[#  25]
          
    |psi|^2 = 0.995
==== e(  22) =     5.87335 eV ==== 
     psi = 0.143*[#  23]+0.143*[#  27]+0.101*[#   9]+0.101*[#  19]+0.082*[#   7]
          +0.082*[#  17]+0.043*[#  10]+0.043*[#  20]+0.032*[#   6]+0.032*[#  16]
          +0.021*[#  24]+0.021*[#  28]+0.021*[#  21]+0.021*[#  25]+0.020*[#   5]
          +0.020*[#  15]+0.020*[#  22]+0.020*[#  26]+0.008*[#   8]+0.008*[#  18]
          
    |psi|^2 = 0.984
==== e(  23) =     6.41227 eV ==== 
     psi = 0.297*[#  24]+0.297*[#  28]+0.045*[#   6]+0.045*[#  16]+0.037*[#   8]
          +0.037*[#  18]+0.026*[#  23]+0.026*[#  27]+0.024*[#   7]+0.024*[#  17]
          +0.017*[#  22]+0.017*[#  26]+0.014*[#   9]+0.014*[#  19]+0.011*[#  10]
          +0.011*[#  20]+0.002*[#   5]+0.002*[#  15]+0.002*[#  21]+0.002*[#  25]
          
    |psi|^2 = 0.947
==== e(  24) =     7.06739 eV ==== 
     psi = 0.231*[#  22]+0.231*[#  26]+0.091*[#  24]+0.091*[#  28]+0.061*[#   5]
          +0.061*[#  15]+0.047*[#  23]+0.047*[#  27]+0.023*[#   9]+0.023*[#  19]
          +0.016*[#   7]+0.016*[#  17]+0.002*[#  10]+0.002*[#  20]+0.002*[#   6]
          +0.002*[#  16]+0.001*[#  21]+0.001*[#  25]
    |psi|^2 = 0.950
==== e(  25) =     7.67358 eV ==== 
     psi = 0.228*[#  24]+0.228*[#  28]+0.088*[#  23]+0.088*[#  27]+0.047*[#   7]
          +0.047*[#  17]+0.038*[#  22]+0.038*[#  26]+0.032*[#   8]+0.032*[#  18]
          +0.032*[#   6]+0.032*[#  16]+0.007*[#   9]+0.007*[#  19]+0.004*[#   5]
          +0.004*[#  15]+0.001*[#  10]+0.001*[#  20]
    |psi|^2 = 0.958
==== e(  26) =     8.18045 eV ==== 
     psi = 0.327*[#  22]+0.327*[#  26]+0.067*[#   5]+0.067*[#  15]+0.031*[#  24]
          +0.031*[#  28]+0.030*[#  23]+0.030*[#  27]+0.014*[#   9]+0.014*[#  19]
          +0.008*[#   8]+0.008*[#  18]+0.008*[#   6]+0.008*[#  16]+0.002*[#   7]
          +0.002*[#  17]
    |psi|^2 = 0.975
==== e(  27) =    15.13933 eV ==== 
     psi = 0.275*[#  10]+0.275*[#  20]+0.082*[#  23]+0.082*[#  27]+0.026*[#  21]
          +0.026*[#  25]+0.007*[#  22]+0.007*[#  26]+0.005*[#  24]+0.005*[#  28]
          
    |psi|^2 = 0.795
==== e(  28) =    16.52510 eV ==== 
     psi = 0.112*[#  10]+0.112*[#  20]+0.027*[#  22]+0.027*[#  26]+0.020*[#  23]
          +0.020*[#  27]+0.003*[#  24]+0.003*[#  28]+0.003*[#  21]+0.003*[#  25]
          
    |psi|^2 = 0.336
==== e(  29) =    17.76865 eV ==== 
     psi = 0.037*[#  10]+0.037*[#  20]+0.033*[#  24]+0.033*[#  28]+0.003*[#  22]
          +0.003*[#  26]+0.002*[#  21]+0.002*[#  25]+0.002*[#  23]+0.002*[#  27]
          
    |psi|^2 = 0.159
==== e(  30) =    17.79647 eV ==== 
     psi = 0.231*[#  20]+0.231*[#  10]+0.054*[#  23]+0.054*[#  27]+0.029*[#  24]
          +0.029*[#  28]+0.011*[#  22]+0.011*[#  26]+0.002*[#   1]+0.002*[#  11]
          +0.001*[#  21]+0.001*[#  25]
    |psi|^2 = 0.655
==== e(  31) =    19.39475 eV ==== 
     psi = 0.014*[#  10]+0.014*[#  20]+0.008*[#  22]+0.008*[#  26]+0.003*[#  24]
          +0.003*[#  28]+0.002*[#  23]+0.002*[#  27]+0.001*[#  21]+0.001*[#  25]
          
    |psi|^2 = 0.059
==== e(  32) =    19.78245 eV ==== 
     psi = 0.027*[#  10]+0.027*[#  20]+0.014*[#  23]+0.014*[#  27]+0.011*[#  22]
          +0.011*[#  26]
    |psi|^2 = 0.109
==== e(  33) =    21.77897 eV ==== 
     psi = 0.006*[#  22]+0.006*[#  26]+0.002*[#  10]+0.002*[#  20]+0.001*[#  24]
          +0.001*[#  28]
    |psi|^2 = 0.022
==== e(  34) =    24.43292 eV ==== 
     psi = 0.002*[#  10]+0.002*[#  20]+0.002*[#  23]+0.002*[#  27]+0.002*[#  22]
          +0.002*[#  26]
    |psi|^2 = 0.017
==== e(  35) =    24.66056 eV ==== 
     psi = 0.004*[#  23]+0.004*[#  27]+0.003*[#  22]+0.003*[#  26]
    |psi|^2 = 0.015
==== e(  36) =    27.02813 eV ==== 
     psi = 0.002*[#  23]+0.002*[#  27]+0.001*[#  22]+0.001*[#  26]
    |psi|^2 = 0.007
==== e(  37) =    30.00392 eV ==== 
 
    |psi|^2 = 0.002
==== e(  38) =    30.16264 eV ==== 
     psi = 0.002*[#  23]+0.002*[#  27]+0.001*[#  10]+0.001*[#  20]
    |psi|^2 = 0.007
==== e(  39) =    32.18828 eV ==== 
     psi = 0.002*[#  24]+0.002*[#  28]
    |psi|^2 = 0.006
==== e(  40) =    33.00420 eV ==== 
     psi = 0.001*[#  22]+0.001*[#  24]+0.001*[#  26]+0.001*[#  28]
    |psi|^2 = 0.006
==== e(  41) =    34.36679 eV ==== 
 
    |psi|^2 = 0.003
==== e(  42) =    34.58264 eV ==== 
 
    |psi|^2 = 0.002
==== e(  43) =    36.37674 eV ==== 
 
    |psi|^2 = 0.002
==== e(  44) =    36.71879 eV ==== 
     psi = 0.001*[#  24]+0.001*[#  28]
    |psi|^2 = 0.004
==== e(  45) =    38.29358 eV ==== 
 
    |psi|^2 = 0.002
==== e(  46) =    38.36111 eV ==== 
 
    |psi|^2 = 0.003
==== e(  47) =    39.02115 eV ==== 
 
    |psi|^2 = 0.001
==== e(  48) =    41.70075 eV ==== 
 
    |psi|^2 = 0.001
==== e(  49) =    41.78250 eV ==== 
 
    |psi|^2 = 0.001
==== e(  50) =    43.39055 eV ==== 
 
    |psi|^2 = 0.000
==== e(  51) =    43.79862 eV ==== 
 
    |psi|^2 = 0.001
==== e(  52) =    45.32971 eV ==== 
 
    |psi|^2 = 0.001

Lowdin Charges: 

     Atom #   1: total charge =  18.6064, s =  2.6317, p =  5.9992, d =  9.9755, 
                 spin up      =   9.3032, s =  1.3158, 
                 spin up      =   9.3032, p =  2.9996, pz=  0.9999, px=  0.9999, py=  0.9999, 
                 spin up      =   9.3032, d =  4.9877, dz2=  0.9963, dxz=  0.9983, dyz=  0.9983, dx2-y2=  0.9974, dxy=  0.9974, 
                 spin down    =   9.3032, s =  1.3158, 
                 spin down    =   9.3032, p =  2.9996, pz=  0.9999, px=  0.9999, py=  0.9999, 
                 spin down    =   9.3032, d =  4.9877, dz2=  0.9963, dxz=  0.9983, dyz=  0.9983, dx2-y2=  0.9974, dxy=  0.9974, 
                 polarization =   0.0000, s =  0.0000, p =  0.0000, d = -0.0000, 
     Atom #   2: total charge =  18.6064, s =  2.6317, p =  5.9992, d =  9.9755, 
                 spin up      =   9.3032, s =  1.3158, 
                 spin up      =   9.3032, p =  2.9996, pz=  0.9999, px=  0.9999, py=  0.9999, 
                 spin up      =   9.3032, d =  4.9877, dz2=  0.9963, dxz=  0.9983, dyz=  0.9983, dx2-y2=  0.9974, dxy=  0.9974, 
                 spin down    =   9.3032, s =  1.3158, 
                 spin down    =   9.3032, p =  2.9996, pz=  0.9999, px=  0.9999, py=  0.9999, 
                 spin down    =   9.3032, d =  4.9877, dz2=  0.9963, dxz=  0.9983, dyz=  0.9983, dx2-y2=  0.9974, dxy=  0.9974, 
                 polarization =   0.0000, s =  0.0000, p =  0.0000, d = -0.0000, 
     Atom #   3: total charge =   7.1983, s =  1.8659, p =  5.3324, d =  0.0000, 
                 spin up      =   3.5992, s =  0.9330, 
                 spin up      =   3.5992, p =  2.6662, pz=  0.8892, px=  0.8885, py=  0.8885, 
                 spin up      =   3.5992, d =  0.0000, dz2=  0.0000, dxz=  0.0000, dyz=  0.0000, dx2-y2=  0.0000, dxy=  0.0000, 
                 spin down    =   3.5992, s =  0.9330, 
                 spin down    =   3.5992, p =  2.6662, pz=  0.8892, px=  0.8885, py=  0.8885, 
                 spin down    =   3.5992, d =  0.0000, dz2=  0.0000, dxz=  0.0000, dyz=  0.0000, dx2-y2=  0.0000, dxy=  0.0000, 
                 polarization =  -0.0000, s = -0.0000, p = -0.0000, d =  0.0000, 
     Atom #   4: total charge =   7.1983, s =  1.8659, p =  5.3324, d =  0.0000, 
                 spin up      =   3.5992, s =  0.9330, 
                 spin up      =   3.5992, p =  2.6662, pz=  0.8892, px=  0.8885, py=  0.8885, 
                 spin up      =   3.5992, d =  0.0000, dz2=  0.0000, dxz=  0.0000, dyz=  0.0000, dx2-y2=  0.0000, dxy=  0.0000, 
                 spin down    =   3.5992, s =  0.9330, 
                 spin down    =   3.5992, p =  2.6662, pz=  0.8892, px=  0.8885, py=  0.8885, 
                 spin down    =   3.5992, d =  0.0000, dz2=  0.0000, dxz=  0.0000, dyz=  0.0000, dx2-y2=  0.0000, dxy=  0.0000, 
                 polarization =  -0.0000, s = -0.0000, p = -0.0000, d =  0.0000, 
     Spilling Parameter:   0.0075
 
     PROJWFC      :      2.86s CPU      8.42s WALL

 
   This run was terminated on:   8:28:58  18Oct2022            

=------------------------------------------------------------------------------=
   JOB DONE.
=------------------------------------------------------------------------------=
