
     Program PWSCF v.7.1 starts on 17Oct2022 at 14:28:12 

     This program is part of the open-source Quantum ESPRESSO suite
     for quantum simulation of materials; please cite
         "P. Giannozzi et al., J. Phys.:Condens. Matter 21 395502 (2009);
         "P. Giannozzi et al., J. Phys.:Condens. Matter 29 465901 (2017);
         "P. Giannozzi et al., J. Chem. Phys. 152 154105 (2020);
          URL http://www.quantum-espresso.org", 
     in publications or presentations arising from this work. More details at
     http://www.quantum-espresso.org/quote

     Parallel version (MPI), running on     1 processors

     MPI processes distributed on     1 nodes
     516 MiB available memory on the printing compute node when the environment starts
 
     Reading input from nscf.pwi
Warning: card &IONS ignored
Warning: card / ignored
Warning: card &CELL ignored
Warning: card / ignored

     Current dimensions of program PWSCF are:
     Max number of different atomic species (ntypx) = 10
     Max number of k-points (npk) =  40000
     Max angular momentum in pseudopotentials (lmaxx) =  4

     Atomic positions and unit cell read from directory:
     ../out/si.save/
     Atomic positions from file used, from input discarded
 
 
     Subspace diagonalization in iterative solution of the eigenvalue problem:
     a serial algorithm will be used

 
     G-vector sticks info
     --------------------
     sticks:   dense  smooth     PW     G-vecs:    dense   smooth      PW
     Sum         295     295    109                 3287     3287     749
 
     Using Slab Decomposition
 


     bravais-lattice index     =            2
     lattice parameter (alat)  =      10.2622  a.u.
     unit-cell volume          =     270.1851 (a.u.)^3
     number of atoms/cell      =            2
     number of atomic types    =            1
     number of electrons       =         8.00 (up:   4.00, down:   4.00)
     number of Kohn-Sham states=           20
     kinetic-energy cutoff     =      20.0000  Ry
     charge density cutoff     =      80.0000  Ry
     Exchange-correlation= SLA  PW   NOGX NOGC
                           (   1   4   0   0   0   0   0)

     celldm(1)=  10.262200  celldm(2)=   0.000000  celldm(3)=   0.000000
     celldm(4)=   0.000000  celldm(5)=   0.000000  celldm(6)=   0.000000

     crystal axes: (cart. coord. in units of alat)
               a(1) = (  -0.500000   0.000000   0.500000 )  
               a(2) = (   0.000000   0.500000   0.500000 )  
               a(3) = (  -0.500000   0.500000   0.000000 )  

     reciprocal axes: (cart. coord. in units 2 pi/alat)
               b(1) = ( -1.000000 -1.000000  1.000000 )  
               b(2) = (  1.000000  1.000000  1.000000 )  
               b(3) = ( -1.000000  1.000000 -1.000000 )  


     PseudoPot. # 1 for Si read from file:
     ../../../files/pseudo/Si.upf
     MD5 check sum: 9e2d726316af3d4752eea8ab0afbb951
     Pseudo is Norm-conserving + core correction, Zval =  4.0
     Generated using ONCVPSP code by D. R. Hamann
     Using radial grid of 1510 points,  6 beta functions with: 
                l(1) =   0
                l(2) =   0
                l(3) =   1
                l(4) =   1
                l(5) =   2
                l(6) =   2

     atomic species   valence    mass     pseudopotential
        Si             4.00    28.08500     Si( 1.00)

     Starting magnetic structure 
     atomic species   magnetization
        Si           0.000

     48 Sym. Ops., with inversion, found (24 have fractional translation)


                                    s                        frac. trans.

      isym =  1     identity                                     

 cryst.   s( 1) = (     1          0          0      )
                  (     0          1          0      )
                  (     0          0          1      )

 cart.    s( 1) = (  1.0000000  0.0000000  0.0000000 )
                  (  0.0000000  1.0000000  0.0000000 )
                  (  0.0000000  0.0000000  1.0000000 )


      isym =  2     180 deg rotation - cart. axis [0,0,1]        

 cryst.   s( 2) = (     0          1         -1      )
                  (     1          0         -1      )
                  (     0          0         -1      )

 cart.    s( 2) = ( -1.0000000  0.0000000  0.0000000 )
                  (  0.0000000 -1.0000000  0.0000000 )
                  (  0.0000000  0.0000000  1.0000000 )


      isym =  3     180 deg rotation - cart. axis [0,1,0]        

 cryst.   s( 3) = (    -1          0          0      )
                  (    -1          0          1      )
                  (    -1          1          0      )

 cart.    s( 3) = ( -1.0000000  0.0000000  0.0000000 )
                  (  0.0000000  1.0000000  0.0000000 )
                  (  0.0000000  0.0000000 -1.0000000 )


      isym =  4     180 deg rotation - cart. axis [1,0,0]        

 cryst.   s( 4) = (     0         -1          1      )
                  (     0         -1          0      )
                  (     1         -1          0      )

 cart.    s( 4) = (  1.0000000  0.0000000  0.0000000 )
                  (  0.0000000 -1.0000000  0.0000000 )
                  (  0.0000000  0.0000000 -1.0000000 )


      isym =  5     180 deg rotation - cart. axis [1,1,0]        

 cryst.   s( 5) = (     0         -1          0      )    f =( -0.2500000 )
                  (    -1          0          0      )       ( -0.2500000 )
                  (     0          0         -1      )       ( -0.2500000 )

 cart.    s( 5) = (  0.0000000  1.0000000  0.0000000 )    f =(  0.2500000 )
                  (  1.0000000  0.0000000  0.0000000 )       ( -0.2500000 )
                  (  0.0000000  0.0000000 -1.0000000 )       ( -0.2500000 )


      isym =  6     180 deg rotation - cart. axis [1,-1,0]       

 cryst.   s( 6) = (    -1          0          1      )    f =( -0.2500000 )
                  (     0         -1          1      )       ( -0.2500000 )
                  (     0          0          1      )       ( -0.2500000 )

 cart.    s( 6) = (  0.0000000 -1.0000000  0.0000000 )    f =(  0.2500000 )
                  ( -1.0000000  0.0000000  0.0000000 )       ( -0.2500000 )
                  (  0.0000000  0.0000000 -1.0000000 )       ( -0.2500000 )


      isym =  7      90 deg rotation - cart. axis [0,0,-1]       

 cryst.   s( 7) = (     0          1          0      )    f =( -0.2500000 )
                  (     0          1         -1      )       ( -0.2500000 )
                  (    -1          1          0      )       ( -0.2500000 )

 cart.    s( 7) = (  0.0000000  1.0000000  0.0000000 )    f =(  0.2500000 )
                  ( -1.0000000  0.0000000  0.0000000 )       ( -0.2500000 )
                  (  0.0000000  0.0000000  1.0000000 )       ( -0.2500000 )


      isym =  8      90 deg rotation - cart. axis [0,0,1]        

 cryst.   s( 8) = (     1          0         -1      )    f =( -0.2500000 )
                  (     1          0          0      )       ( -0.2500000 )
                  (     1         -1          0      )       ( -0.2500000 )

 cart.    s( 8) = (  0.0000000 -1.0000000  0.0000000 )    f =(  0.2500000 )
                  (  1.0000000  0.0000000  0.0000000 )       ( -0.2500000 )
                  (  0.0000000  0.0000000  1.0000000 )       ( -0.2500000 )


      isym =  9     180 deg rotation - cart. axis [1,0,1]        

 cryst.   s( 9) = (    -1          0          0      )    f =( -0.2500000 )
                  (     0          0         -1      )       ( -0.2500000 )
                  (     0         -1          0      )       ( -0.2500000 )

 cart.    s( 9) = (  0.0000000  0.0000000  1.0000000 )    f =(  0.2500000 )
                  (  0.0000000 -1.0000000  0.0000000 )       ( -0.2500000 )
                  (  1.0000000  0.0000000  0.0000000 )       ( -0.2500000 )


      isym = 10     180 deg rotation - cart. axis [-1,0,1]       

 cryst.   s(10) = (     1          0          0      )    f =( -0.2500000 )
                  (     1         -1          0      )       ( -0.2500000 )
                  (     1          0         -1      )       ( -0.2500000 )

 cart.    s(10) = (  0.0000000  0.0000000 -1.0000000 )    f =(  0.2500000 )
                  (  0.0000000 -1.0000000  0.0000000 )       ( -0.2500000 )
                  ( -1.0000000  0.0000000  0.0000000 )       ( -0.2500000 )


      isym = 11      90 deg rotation - cart. axis [0,1,0]        

 cryst.   s(11) = (     0          1         -1      )    f =( -0.2500000 )
                  (    -1          1          0      )       ( -0.2500000 )
                  (     0          1          0      )       ( -0.2500000 )

 cart.    s(11) = (  0.0000000  0.0000000  1.0000000 )    f =(  0.2500000 )
                  (  0.0000000  1.0000000  0.0000000 )       ( -0.2500000 )
                  ( -1.0000000  0.0000000  0.0000000 )       ( -0.2500000 )


      isym = 12      90 deg rotation - cart. axis [0,-1,0]       

 cryst.   s(12) = (     0         -1          1      )    f =( -0.2500000 )
                  (     0          0          1      )       ( -0.2500000 )
                  (    -1          0          1      )       ( -0.2500000 )

 cart.    s(12) = (  0.0000000  0.0000000 -1.0000000 )    f =(  0.2500000 )
                  (  0.0000000  1.0000000  0.0000000 )       ( -0.2500000 )
                  (  1.0000000  0.0000000  0.0000000 )       ( -0.2500000 )


      isym = 13     180 deg rotation - cart. axis [0,1,1]        

 cryst.   s(13) = (    -1          1          0      )    f =( -0.2500000 )
                  (     0          1          0      )       ( -0.2500000 )
                  (     0          1         -1      )       ( -0.2500000 )

 cart.    s(13) = ( -1.0000000  0.0000000  0.0000000 )    f =(  0.2500000 )
                  (  0.0000000  0.0000000  1.0000000 )       ( -0.2500000 )
                  (  0.0000000  1.0000000  0.0000000 )       ( -0.2500000 )


      isym = 14     180 deg rotation - cart. axis [0,1,-1]       

 cryst.   s(14) = (     0          0         -1      )    f =( -0.2500000 )
                  (     0         -1          0      )       ( -0.2500000 )
                  (    -1          0          0      )       ( -0.2500000 )

 cart.    s(14) = ( -1.0000000  0.0000000  0.0000000 )    f =(  0.2500000 )
                  (  0.0000000  0.0000000 -1.0000000 )       ( -0.2500000 )
                  (  0.0000000 -1.0000000  0.0000000 )       ( -0.2500000 )


      isym = 15      90 deg rotation - cart. axis [-1,0,0]       

 cryst.   s(15) = (     0          0          1      )    f =( -0.2500000 )
                  (    -1          0          1      )       ( -0.2500000 )
                  (     0         -1          1      )       ( -0.2500000 )

 cart.    s(15) = (  1.0000000  0.0000000  0.0000000 )    f =(  0.2500000 )
                  (  0.0000000  0.0000000  1.0000000 )       ( -0.2500000 )
                  (  0.0000000 -1.0000000  0.0000000 )       ( -0.2500000 )


      isym = 16      90 deg rotation - cart. axis [1,0,0]        

 cryst.   s(16) = (     1         -1          0      )    f =( -0.2500000 )
                  (     1          0         -1      )       ( -0.2500000 )
                  (     1          0          0      )       ( -0.2500000 )

 cart.    s(16) = (  1.0000000  0.0000000  0.0000000 )    f =(  0.2500000 )
                  (  0.0000000  0.0000000 -1.0000000 )       ( -0.2500000 )
                  (  0.0000000  1.0000000  0.0000000 )       ( -0.2500000 )


      isym = 17     120 deg rotation - cart. axis [-1,-1,-1]     

 cryst.   s(17) = (    -1          0          1      )
                  (    -1          1          0      )
                  (    -1          0          0      )

 cart.    s(17) = (  0.0000000  1.0000000  0.0000000 )
                  (  0.0000000  0.0000000  1.0000000 )
                  (  1.0000000  0.0000000  0.0000000 )


      isym = 18     120 deg rotation - cart. axis [-1,1,1]       

 cryst.   s(18) = (     0          1          0      )
                  (     0          0          1      )
                  (     1          0          0      )

 cart.    s(18) = (  0.0000000 -1.0000000  0.0000000 )
                  (  0.0000000  0.0000000  1.0000000 )
                  ( -1.0000000  0.0000000  0.0000000 )


      isym = 19     120 deg rotation - cart. axis [1,1,-1]       

 cryst.   s(19) = (     1          0         -1      )
                  (     0          0         -1      )
                  (     0          1         -1      )

 cart.    s(19) = (  0.0000000  1.0000000  0.0000000 )
                  (  0.0000000  0.0000000 -1.0000000 )
                  ( -1.0000000  0.0000000  0.0000000 )


      isym = 20     120 deg rotation - cart. axis [1,-1,1]       

 cryst.   s(20) = (     0         -1          0      )
                  (     1         -1          0      )
                  (     0         -1          1      )

 cart.    s(20) = (  0.0000000 -1.0000000  0.0000000 )
                  (  0.0000000  0.0000000 -1.0000000 )
                  (  1.0000000  0.0000000  0.0000000 )


      isym = 21     120 deg rotation - cart. axis [1,1,1]        

 cryst.   s(21) = (     0          0         -1      )
                  (     0          1         -1      )
                  (     1          0         -1      )

 cart.    s(21) = (  0.0000000  0.0000000  1.0000000 )
                  (  1.0000000  0.0000000  0.0000000 )
                  (  0.0000000  1.0000000  0.0000000 )


      isym = 22     120 deg rotation - cart. axis [-1,1,-1]      

 cryst.   s(22) = (    -1          1          0      )
                  (    -1          0          0      )
                  (    -1          0          1      )

 cart.    s(22) = (  0.0000000  0.0000000  1.0000000 )
                  ( -1.0000000  0.0000000  0.0000000 )
                  (  0.0000000 -1.0000000  0.0000000 )


      isym = 23     120 deg rotation - cart. axis [1,-1,-1]      

 cryst.   s(23) = (     0          0          1      )
                  (     1          0          0      )
                  (     0          1          0      )

 cart.    s(23) = (  0.0000000  0.0000000 -1.0000000 )
                  ( -1.0000000  0.0000000  0.0000000 )
                  (  0.0000000  1.0000000  0.0000000 )


      isym = 24     120 deg rotation - cart. axis [-1,-1,1]      

 cryst.   s(24) = (     1         -1          0      )
                  (     0         -1          1      )
                  (     0         -1          0      )

 cart.    s(24) = (  0.0000000  0.0000000 -1.0000000 )
                  (  1.0000000  0.0000000  0.0000000 )
                  (  0.0000000 -1.0000000  0.0000000 )


      isym = 25     inversion                                    

 cryst.   s(25) = (    -1          0          0      )    f =( -0.2500000 )
                  (     0         -1          0      )       ( -0.2500000 )
                  (     0          0         -1      )       ( -0.2500000 )

 cart.    s(25) = ( -1.0000000  0.0000000  0.0000000 )    f =(  0.2500000 )
                  (  0.0000000 -1.0000000  0.0000000 )       ( -0.2500000 )
                  (  0.0000000  0.0000000 -1.0000000 )       ( -0.2500000 )


      isym = 26     inv. 180 deg rotation - cart. axis [0,0,1]   

 cryst.   s(26) = (     0         -1          1      )    f =( -0.2500000 )
                  (    -1          0          1      )       ( -0.2500000 )
                  (     0          0          1      )       ( -0.2500000 )

 cart.    s(26) = (  1.0000000  0.0000000  0.0000000 )    f =(  0.2500000 )
                  (  0.0000000  1.0000000  0.0000000 )       ( -0.2500000 )
                  (  0.0000000  0.0000000 -1.0000000 )       ( -0.2500000 )


      isym = 27     inv. 180 deg rotation - cart. axis [0,1,0]   

 cryst.   s(27) = (     1          0          0      )    f =( -0.2500000 )
                  (     1          0         -1      )       ( -0.2500000 )
                  (     1         -1          0      )       ( -0.2500000 )

 cart.    s(27) = (  1.0000000  0.0000000  0.0000000 )    f =(  0.2500000 )
                  (  0.0000000 -1.0000000  0.0000000 )       ( -0.2500000 )
                  (  0.0000000  0.0000000  1.0000000 )       ( -0.2500000 )


      isym = 28     inv. 180 deg rotation - cart. axis [1,0,0]   

 cryst.   s(28) = (     0          1         -1      )    f =( -0.2500000 )
                  (     0          1          0      )       ( -0.2500000 )
                  (    -1          1          0      )       ( -0.2500000 )

 cart.    s(28) = ( -1.0000000  0.0000000  0.0000000 )    f =(  0.2500000 )
                  (  0.0000000  1.0000000  0.0000000 )       ( -0.2500000 )
                  (  0.0000000  0.0000000  1.0000000 )       ( -0.2500000 )


      isym = 29     inv. 180 deg rotation - cart. axis [1,1,0]   

 cryst.   s(29) = (     0          1          0      )
                  (     1          0          0      )
                  (     0          0          1      )

 cart.    s(29) = (  0.0000000 -1.0000000  0.0000000 )
                  ( -1.0000000  0.0000000  0.0000000 )
                  (  0.0000000  0.0000000  1.0000000 )


      isym = 30     inv. 180 deg rotation - cart. axis [1,-1,0]  

 cryst.   s(30) = (     1          0         -1      )
                  (     0          1         -1      )
                  (     0          0         -1      )

 cart.    s(30) = (  0.0000000  1.0000000  0.0000000 )
                  (  1.0000000  0.0000000  0.0000000 )
                  (  0.0000000  0.0000000  1.0000000 )


      isym = 31     inv.  90 deg rotation - cart. axis [0,0,-1]  

 cryst.   s(31) = (     0         -1          0      )
                  (     0         -1          1      )
                  (     1         -1          0      )

 cart.    s(31) = (  0.0000000 -1.0000000  0.0000000 )
                  (  1.0000000  0.0000000  0.0000000 )
                  (  0.0000000  0.0000000 -1.0000000 )


      isym = 32     inv.  90 deg rotation - cart. axis [0,0,1]   

 cryst.   s(32) = (    -1          0          1      )
                  (    -1          0          0      )
                  (    -1          1          0      )

 cart.    s(32) = (  0.0000000  1.0000000  0.0000000 )
                  ( -1.0000000  0.0000000  0.0000000 )
                  (  0.0000000  0.0000000 -1.0000000 )


      isym = 33     inv. 180 deg rotation - cart. axis [1,0,1]   

 cryst.   s(33) = (     1          0          0      )
                  (     0          0          1      )
                  (     0          1          0      )

 cart.    s(33) = (  0.0000000  0.0000000 -1.0000000 )
                  (  0.0000000  1.0000000  0.0000000 )
                  ( -1.0000000  0.0000000  0.0000000 )


      isym = 34     inv. 180 deg rotation - cart. axis [-1,0,1]  

 cryst.   s(34) = (    -1          0          0      )
                  (    -1          1          0      )
                  (    -1          0          1      )

 cart.    s(34) = (  0.0000000  0.0000000  1.0000000 )
                  (  0.0000000  1.0000000  0.0000000 )
                  (  1.0000000  0.0000000  0.0000000 )


      isym = 35     inv.  90 deg rotation - cart. axis [0,1,0]   

 cryst.   s(35) = (     0         -1          1      )
                  (     1         -1          0      )
                  (     0         -1          0      )

 cart.    s(35) = (  0.0000000  0.0000000 -1.0000000 )
                  (  0.0000000 -1.0000000  0.0000000 )
                  (  1.0000000  0.0000000  0.0000000 )


      isym = 36     inv.  90 deg rotation - cart. axis [0,-1,0]  

 cryst.   s(36) = (     0          1         -1      )
                  (     0          0         -1      )
                  (     1          0         -1      )

 cart.    s(36) = (  0.0000000  0.0000000  1.0000000 )
                  (  0.0000000 -1.0000000  0.0000000 )
                  ( -1.0000000  0.0000000  0.0000000 )


      isym = 37     inv. 180 deg rotation - cart. axis [0,1,1]   

 cryst.   s(37) = (     1         -1          0      )
                  (     0         -1          0      )
                  (     0         -1          1      )

 cart.    s(37) = (  1.0000000  0.0000000  0.0000000 )
                  (  0.0000000  0.0000000 -1.0000000 )
                  (  0.0000000 -1.0000000  0.0000000 )


      isym = 38     inv. 180 deg rotation - cart. axis [0,1,-1]  

 cryst.   s(38) = (     0          0          1      )
                  (     0          1          0      )
                  (     1          0          0      )

 cart.    s(38) = (  1.0000000  0.0000000  0.0000000 )
                  (  0.0000000  0.0000000  1.0000000 )
                  (  0.0000000  1.0000000  0.0000000 )


      isym = 39     inv.  90 deg rotation - cart. axis [-1,0,0]  

 cryst.   s(39) = (     0          0         -1      )
                  (     1          0         -1      )
                  (     0          1         -1      )

 cart.    s(39) = ( -1.0000000  0.0000000  0.0000000 )
                  (  0.0000000  0.0000000 -1.0000000 )
                  (  0.0000000  1.0000000  0.0000000 )


      isym = 40     inv.  90 deg rotation - cart. axis [1,0,0]   

 cryst.   s(40) = (    -1          1          0      )
                  (    -1          0          1      )
                  (    -1          0          0      )

 cart.    s(40) = ( -1.0000000  0.0000000  0.0000000 )
                  (  0.0000000  0.0000000  1.0000000 )
                  (  0.0000000 -1.0000000  0.0000000 )


      isym = 41     inv. 120 deg rotation - cart. axis [-1,-1,-1]

 cryst.   s(41) = (     1          0         -1      )    f =( -0.2500000 )
                  (     1         -1          0      )       ( -0.2500000 )
                  (     1          0          0      )       ( -0.2500000 )

 cart.    s(41) = (  0.0000000 -1.0000000  0.0000000 )    f =(  0.2500000 )
                  (  0.0000000  0.0000000 -1.0000000 )       ( -0.2500000 )
                  ( -1.0000000  0.0000000  0.0000000 )       ( -0.2500000 )


      isym = 42     inv. 120 deg rotation - cart. axis [-1,1,1]  

 cryst.   s(42) = (     0         -1          0      )    f =( -0.2500000 )
                  (     0          0         -1      )       ( -0.2500000 )
                  (    -1          0          0      )       ( -0.2500000 )

 cart.    s(42) = (  0.0000000  1.0000000  0.0000000 )    f =(  0.2500000 )
                  (  0.0000000  0.0000000 -1.0000000 )       ( -0.2500000 )
                  (  1.0000000  0.0000000  0.0000000 )       ( -0.2500000 )


      isym = 43     inv. 120 deg rotation - cart. axis [1,1,-1]  

 cryst.   s(43) = (    -1          0          1      )    f =( -0.2500000 )
                  (     0          0          1      )       ( -0.2500000 )
                  (     0         -1          1      )       ( -0.2500000 )

 cart.    s(43) = (  0.0000000 -1.0000000  0.0000000 )    f =(  0.2500000 )
                  (  0.0000000  0.0000000  1.0000000 )       ( -0.2500000 )
                  (  1.0000000  0.0000000  0.0000000 )       ( -0.2500000 )


      isym = 44     inv. 120 deg rotation - cart. axis [1,-1,1]  

 cryst.   s(44) = (     0          1          0      )    f =( -0.2500000 )
                  (    -1          1          0      )       ( -0.2500000 )
                  (     0          1         -1      )       ( -0.2500000 )

 cart.    s(44) = (  0.0000000  1.0000000  0.0000000 )    f =(  0.2500000 )
                  (  0.0000000  0.0000000  1.0000000 )       ( -0.2500000 )
                  ( -1.0000000  0.0000000  0.0000000 )       ( -0.2500000 )


      isym = 45     inv. 120 deg rotation - cart. axis [1,1,1]   

 cryst.   s(45) = (     0          0          1      )    f =( -0.2500000 )
                  (     0         -1          1      )       ( -0.2500000 )
                  (    -1          0          1      )       ( -0.2500000 )

 cart.    s(45) = (  0.0000000  0.0000000 -1.0000000 )    f =(  0.2500000 )
                  ( -1.0000000  0.0000000  0.0000000 )       ( -0.2500000 )
                  (  0.0000000 -1.0000000  0.0000000 )       ( -0.2500000 )


      isym = 46     inv. 120 deg rotation - cart. axis [-1,1,-1] 

 cryst.   s(46) = (     1         -1          0      )    f =( -0.2500000 )
                  (     1          0          0      )       ( -0.2500000 )
                  (     1          0         -1      )       ( -0.2500000 )

 cart.    s(46) = (  0.0000000  0.0000000 -1.0000000 )    f =(  0.2500000 )
                  (  1.0000000  0.0000000  0.0000000 )       ( -0.2500000 )
                  (  0.0000000  1.0000000  0.0000000 )       ( -0.2500000 )


      isym = 47     inv. 120 deg rotation - cart. axis [1,-1,-1] 

 cryst.   s(47) = (     0          0         -1      )    f =( -0.2500000 )
                  (    -1          0          0      )       ( -0.2500000 )
                  (     0         -1          0      )       ( -0.2500000 )

 cart.    s(47) = (  0.0000000  0.0000000  1.0000000 )    f =(  0.2500000 )
                  (  1.0000000  0.0000000  0.0000000 )       ( -0.2500000 )
                  (  0.0000000 -1.0000000  0.0000000 )       ( -0.2500000 )


      isym = 48     inv. 120 deg rotation - cart. axis [-1,-1,1] 

 cryst.   s(48) = (    -1          1          0      )    f =( -0.2500000 )
                  (     0          1         -1      )       ( -0.2500000 )
                  (     0          1          0      )       ( -0.2500000 )

 cart.    s(48) = (  0.0000000  0.0000000  1.0000000 )    f =(  0.2500000 )
                  ( -1.0000000  0.0000000  0.0000000 )       ( -0.2500000 )
                  (  0.0000000  1.0000000  0.0000000 )       ( -0.2500000 )


     point group O_h (m-3m) 
     there are 10 classes
     the character table:

       E     8C3   3C2   6C4   6C2'  i     8S6   3s_h  6S4   6s_d 
A_1g   1.00  1.00  1.00  1.00  1.00  1.00  1.00  1.00  1.00  1.00
A_2g   1.00  1.00  1.00 -1.00 -1.00  1.00  1.00  1.00 -1.00 -1.00
E_g    2.00 -1.00  2.00  0.00  0.00  2.00 -1.00  2.00  0.00  0.00
T_1g   3.00  0.00 -1.00  1.00 -1.00  3.00  0.00 -1.00  1.00 -1.00
T_2g   3.00  0.00 -1.00 -1.00  1.00  3.00  0.00 -1.00 -1.00  1.00
A_1u   1.00  1.00  1.00  1.00  1.00 -1.00 -1.00 -1.00 -1.00 -1.00
A_2u   1.00  1.00  1.00 -1.00 -1.00 -1.00 -1.00 -1.00  1.00  1.00
E_u    2.00 -1.00  2.00  0.00  0.00 -2.00  1.00 -2.00  0.00  0.00
T_1u   3.00  0.00 -1.00  1.00 -1.00 -3.00  0.00  1.00 -1.00  1.00
T_2u   3.00  0.00 -1.00 -1.00  1.00 -3.00  0.00  1.00  1.00 -1.00

     the symmetry operations in each class and the name of the first element:

     E        1
          identity                                               
     8C3     17   19   20   18   24   21   22   23
          120 deg rotation - cart. axis [-1,-1,-1]               
     3C2      2    4    3
          180 deg rotation - cart. axis [0,0,1]                  
     6C4      7    8   15   16   12   11
           90 deg rotation - cart. axis [0,0,-1]                 
     6C2'     5    6   14   13   10    9
          180 deg rotation - cart. axis [1,1,0]                  
     i       25
          inversion                                              
     8S6     41   43   44   42   48   45   46   47
          inv. 120 deg rotation - cart. axis [-1,-1,-1]          
     3s_h    26   28   27
          inv. 180 deg rotation - cart. axis [0,0,1]             
     6S4     31   32   39   40   36   35
          inv.  90 deg rotation - cart. axis [0,0,-1]            
     6s_d    29   30   38   37   34   33
          inv. 180 deg rotation - cart. axis [1,1,0]             

   Cartesian axes

     site n.     atom                  positions (alat units)
         1           Si  tau(   1) = (   0.0000000   0.0000000   0.0000000  )
         2           Si  tau(   2) = (  -0.2500000   0.2500000   0.2500000  )

   Crystallographic axes

     site n.     atom                  positions (cryst. coord.)
         1           Si  tau(   1) = (  0.0000000  0.0000000  0.0000000  )
         2           Si  tau(   2) = (  0.2500000  0.2500000  0.2500000  )

     number of k points=   216
                       cart. coord. in units 2pi/alat
        k(    1) = (   0.0000000   0.0000000   0.0000000), wk =   0.0046296
        k(    2) = (  -0.1666667   0.1666667  -0.1666667), wk =   0.0046296
        k(    3) = (  -0.3333333   0.3333333  -0.3333333), wk =   0.0046296
        k(    4) = (  -0.5000000   0.5000000  -0.5000000), wk =   0.0046296
        k(    5) = (  -0.6666667   0.6666667  -0.6666667), wk =   0.0046296
        k(    6) = (  -0.8333333   0.8333333  -0.8333333), wk =   0.0046296
        k(    7) = (   0.1666667   0.1666667   0.1666667), wk =   0.0046296
        k(    8) = (   0.0000000   0.3333333   0.0000000), wk =   0.0046296
        k(    9) = (  -0.1666667   0.5000000  -0.1666667), wk =   0.0046296
        k(   10) = (  -0.3333333   0.6666667  -0.3333333), wk =   0.0046296
        k(   11) = (  -0.5000000   0.8333333  -0.5000000), wk =   0.0046296
        k(   12) = (  -0.6666667   1.0000000  -0.6666667), wk =   0.0046296
        k(   13) = (   0.3333333   0.3333333   0.3333333), wk =   0.0046296
        k(   14) = (   0.1666667   0.5000000   0.1666667), wk =   0.0046296
        k(   15) = (   0.0000000   0.6666667   0.0000000), wk =   0.0046296
        k(   16) = (  -0.1666667   0.8333333  -0.1666667), wk =   0.0046296
        k(   17) = (  -0.3333333   1.0000000  -0.3333333), wk =   0.0046296
        k(   18) = (  -0.5000000   1.1666667  -0.5000000), wk =   0.0046296
        k(   19) = (   0.5000000   0.5000000   0.5000000), wk =   0.0046296
        k(   20) = (   0.3333333   0.6666667   0.3333333), wk =   0.0046296
        k(   21) = (   0.1666667   0.8333333   0.1666667), wk =   0.0046296
        k(   22) = (   0.0000000   1.0000000   0.0000000), wk =   0.0046296
        k(   23) = (  -0.1666667   1.1666667  -0.1666667), wk =   0.0046296
        k(   24) = (  -0.3333333   1.3333333  -0.3333333), wk =   0.0046296
        k(   25) = (   0.6666667   0.6666667   0.6666667), wk =   0.0046296
        k(   26) = (   0.5000000   0.8333333   0.5000000), wk =   0.0046296
        k(   27) = (   0.3333333   1.0000000   0.3333333), wk =   0.0046296
        k(   28) = (   0.1666667   1.1666667   0.1666667), wk =   0.0046296
        k(   29) = (   0.0000000   1.3333333   0.0000000), wk =   0.0046296
        k(   30) = (  -0.1666667   1.5000000  -0.1666667), wk =   0.0046296
        k(   31) = (   0.8333333   0.8333333   0.8333333), wk =   0.0046296
        k(   32) = (   0.6666667   1.0000000   0.6666667), wk =   0.0046296
        k(   33) = (   0.5000000   1.1666667   0.5000000), wk =   0.0046296
        k(   34) = (   0.3333333   1.3333333   0.3333333), wk =   0.0046296
        k(   35) = (   0.1666667   1.5000000   0.1666667), wk =   0.0046296
        k(   36) = (   0.0000000   1.6666667   0.0000000), wk =   0.0046296
        k(   37) = (  -0.1666667  -0.1666667   0.1666667), wk =   0.0046296
        k(   38) = (  -0.3333333   0.0000000   0.0000000), wk =   0.0046296
        k(   39) = (  -0.5000000   0.1666667  -0.1666667), wk =   0.0046296
        k(   40) = (  -0.6666667   0.3333333  -0.3333333), wk =   0.0046296
        k(   41) = (  -0.8333333   0.5000000  -0.5000000), wk =   0.0046296
        k(   42) = (  -1.0000000   0.6666667  -0.6666667), wk =   0.0046296
        k(   43) = (   0.0000000   0.0000000   0.3333333), wk =   0.0046296
        k(   44) = (  -0.1666667   0.1666667   0.1666667), wk =   0.0046296
        k(   45) = (  -0.3333333   0.3333333   0.0000000), wk =   0.0046296
        k(   46) = (  -0.5000000   0.5000000  -0.1666667), wk =   0.0046296
        k(   47) = (  -0.6666667   0.6666667  -0.3333333), wk =   0.0046296
        k(   48) = (  -0.8333333   0.8333333  -0.5000000), wk =   0.0046296
        k(   49) = (   0.1666667   0.1666667   0.5000000), wk =   0.0046296
        k(   50) = (  -0.0000000   0.3333333   0.3333333), wk =   0.0046296
        k(   51) = (  -0.1666667   0.5000000   0.1666667), wk =   0.0046296
        k(   52) = (  -0.3333333   0.6666667   0.0000000), wk =   0.0046296
        k(   53) = (  -0.5000000   0.8333333  -0.1666667), wk =   0.0046296
        k(   54) = (  -0.6666667   1.0000000  -0.3333333), wk =   0.0046296
        k(   55) = (   0.3333333   0.3333333   0.6666667), wk =   0.0046296
        k(   56) = (   0.1666667   0.5000000   0.5000000), wk =   0.0046296
        k(   57) = (   0.0000000   0.6666667   0.3333333), wk =   0.0046296
        k(   58) = (  -0.1666667   0.8333333   0.1666667), wk =   0.0046296
        k(   59) = (  -0.3333333   1.0000000   0.0000000), wk =   0.0046296
        k(   60) = (  -0.5000000   1.1666667  -0.1666667), wk =   0.0046296
        k(   61) = (   0.5000000   0.5000000   0.8333333), wk =   0.0046296
        k(   62) = (   0.3333333   0.6666667   0.6666667), wk =   0.0046296
        k(   63) = (   0.1666667   0.8333333   0.5000000), wk =   0.0046296
        k(   64) = (   0.0000000   1.0000000   0.3333333), wk =   0.0046296
        k(   65) = (  -0.1666667   1.1666667   0.1666667), wk =   0.0046296
        k(   66) = (  -0.3333333   1.3333333   0.0000000), wk =   0.0046296
        k(   67) = (   0.6666667   0.6666667   1.0000000), wk =   0.0046296
        k(   68) = (   0.5000000   0.8333333   0.8333333), wk =   0.0046296
        k(   69) = (   0.3333333   1.0000000   0.6666667), wk =   0.0046296
        k(   70) = (   0.1666667   1.1666667   0.5000000), wk =   0.0046296
        k(   71) = (  -0.0000000   1.3333333   0.3333333), wk =   0.0046296
        k(   72) = (  -0.1666667   1.5000000   0.1666667), wk =   0.0046296
        k(   73) = (  -0.3333333  -0.3333333   0.3333333), wk =   0.0046296
        k(   74) = (  -0.5000000  -0.1666667   0.1666667), wk =   0.0046296
        k(   75) = (  -0.6666667   0.0000000   0.0000000), wk =   0.0046296
        k(   76) = (  -0.8333333   0.1666667  -0.1666667), wk =   0.0046296
        k(   77) = (  -1.0000000   0.3333333  -0.3333333), wk =   0.0046296
        k(   78) = (  -1.1666667   0.5000000  -0.5000000), wk =   0.0046296
        k(   79) = (  -0.1666667  -0.1666667   0.5000000), wk =   0.0046296
        k(   80) = (  -0.3333333   0.0000000   0.3333333), wk =   0.0046296
        k(   81) = (  -0.5000000   0.1666667   0.1666667), wk =   0.0046296
        k(   82) = (  -0.6666667   0.3333333   0.0000000), wk =   0.0046296
        k(   83) = (  -0.8333333   0.5000000  -0.1666667), wk =   0.0046296
        k(   84) = (  -1.0000000   0.6666667  -0.3333333), wk =   0.0046296
        k(   85) = (   0.0000000   0.0000000   0.6666667), wk =   0.0046296
        k(   86) = (  -0.1666667   0.1666667   0.5000000), wk =   0.0046296
        k(   87) = (  -0.3333333   0.3333333   0.3333333), wk =   0.0046296
        k(   88) = (  -0.5000000   0.5000000   0.1666667), wk =   0.0046296
        k(   89) = (  -0.6666667   0.6666667  -0.0000000), wk =   0.0046296
        k(   90) = (  -0.8333333   0.8333333  -0.1666667), wk =   0.0046296
        k(   91) = (   0.1666667   0.1666667   0.8333333), wk =   0.0046296
        k(   92) = (   0.0000000   0.3333333   0.6666667), wk =   0.0046296
        k(   93) = (  -0.1666667   0.5000000   0.5000000), wk =   0.0046296
        k(   94) = (  -0.3333333   0.6666667   0.3333333), wk =   0.0046296
        k(   95) = (  -0.5000000   0.8333333   0.1666667), wk =   0.0046296
        k(   96) = (  -0.6666667   1.0000000   0.0000000), wk =   0.0046296
        k(   97) = (   0.3333333   0.3333333   1.0000000), wk =   0.0046296
        k(   98) = (   0.1666667   0.5000000   0.8333333), wk =   0.0046296
        k(   99) = (   0.0000000   0.6666667   0.6666667), wk =   0.0046296
        k(  100) = (  -0.1666667   0.8333333   0.5000000), wk =   0.0046296
        k(  101) = (  -0.3333333   1.0000000   0.3333333), wk =   0.0046296
        k(  102) = (  -0.5000000   1.1666667   0.1666667), wk =   0.0046296
        k(  103) = (   0.5000000   0.5000000   1.1666667), wk =   0.0046296
        k(  104) = (   0.3333333   0.6666667   1.0000000), wk =   0.0046296
        k(  105) = (   0.1666667   0.8333333   0.8333333), wk =   0.0046296
        k(  106) = (   0.0000000   1.0000000   0.6666667), wk =   0.0046296
        k(  107) = (  -0.1666667   1.1666667   0.5000000), wk =   0.0046296
        k(  108) = (  -0.3333333   1.3333333   0.3333333), wk =   0.0046296
        k(  109) = (  -0.5000000  -0.5000000   0.5000000), wk =   0.0046296
        k(  110) = (  -0.6666667  -0.3333333   0.3333333), wk =   0.0046296
        k(  111) = (  -0.8333333  -0.1666667   0.1666667), wk =   0.0046296
        k(  112) = (  -1.0000000   0.0000000   0.0000000), wk =   0.0046296
        k(  113) = (  -1.1666667   0.1666667  -0.1666667), wk =   0.0046296
        k(  114) = (  -1.3333333   0.3333333  -0.3333333), wk =   0.0046296
        k(  115) = (  -0.3333333  -0.3333333   0.6666667), wk =   0.0046296
        k(  116) = (  -0.5000000  -0.1666667   0.5000000), wk =   0.0046296
        k(  117) = (  -0.6666667   0.0000000   0.3333333), wk =   0.0046296
        k(  118) = (  -0.8333333   0.1666667   0.1666667), wk =   0.0046296
        k(  119) = (  -1.0000000   0.3333333   0.0000000), wk =   0.0046296
        k(  120) = (  -1.1666667   0.5000000  -0.1666667), wk =   0.0046296
        k(  121) = (  -0.1666667  -0.1666667   0.8333333), wk =   0.0046296
        k(  122) = (  -0.3333333  -0.0000000   0.6666667), wk =   0.0046296
        k(  123) = (  -0.5000000   0.1666667   0.5000000), wk =   0.0046296
        k(  124) = (  -0.6666667   0.3333333   0.3333333), wk =   0.0046296
        k(  125) = (  -0.8333333   0.5000000   0.1666667), wk =   0.0046296
        k(  126) = (  -1.0000000   0.6666667   0.0000000), wk =   0.0046296
        k(  127) = (   0.0000000   0.0000000   1.0000000), wk =   0.0046296
        k(  128) = (  -0.1666667   0.1666667   0.8333333), wk =   0.0046296
        k(  129) = (  -0.3333333   0.3333333   0.6666667), wk =   0.0046296
        k(  130) = (  -0.5000000   0.5000000   0.5000000), wk =   0.0046296
        k(  131) = (  -0.6666667   0.6666667   0.3333333), wk =   0.0046296
        k(  132) = (  -0.8333333   0.8333333   0.1666667), wk =   0.0046296
        k(  133) = (   0.1666667   0.1666667   1.1666667), wk =   0.0046296
        k(  134) = (   0.0000000   0.3333333   1.0000000), wk =   0.0046296
        k(  135) = (  -0.1666667   0.5000000   0.8333333), wk =   0.0046296
        k(  136) = (  -0.3333333   0.6666667   0.6666667), wk =   0.0046296
        k(  137) = (  -0.5000000   0.8333333   0.5000000), wk =   0.0046296
        k(  138) = (  -0.6666667   1.0000000   0.3333333), wk =   0.0046296
        k(  139) = (   0.3333333   0.3333333   1.3333333), wk =   0.0046296
        k(  140) = (   0.1666667   0.5000000   1.1666667), wk =   0.0046296
        k(  141) = (   0.0000000   0.6666667   1.0000000), wk =   0.0046296
        k(  142) = (  -0.1666667   0.8333333   0.8333333), wk =   0.0046296
        k(  143) = (  -0.3333333   1.0000000   0.6666667), wk =   0.0046296
        k(  144) = (  -0.5000000   1.1666667   0.5000000), wk =   0.0046296
        k(  145) = (  -0.6666667  -0.6666667   0.6666667), wk =   0.0046296
        k(  146) = (  -0.8333333  -0.5000000   0.5000000), wk =   0.0046296
        k(  147) = (  -1.0000000  -0.3333333   0.3333333), wk =   0.0046296
        k(  148) = (  -1.1666667  -0.1666667   0.1666667), wk =   0.0046296
        k(  149) = (  -1.3333333   0.0000000   0.0000000), wk =   0.0046296
        k(  150) = (  -1.5000000   0.1666667  -0.1666667), wk =   0.0046296
        k(  151) = (  -0.5000000  -0.5000000   0.8333333), wk =   0.0046296
        k(  152) = (  -0.6666667  -0.3333333   0.6666667), wk =   0.0046296
        k(  153) = (  -0.8333333  -0.1666667   0.5000000), wk =   0.0046296
        k(  154) = (  -1.0000000   0.0000000   0.3333333), wk =   0.0046296
        k(  155) = (  -1.1666667   0.1666667   0.1666667), wk =   0.0046296
        k(  156) = (  -1.3333333   0.3333333   0.0000000), wk =   0.0046296
        k(  157) = (  -0.3333333  -0.3333333   1.0000000), wk =   0.0046296
        k(  158) = (  -0.5000000  -0.1666667   0.8333333), wk =   0.0046296
        k(  159) = (  -0.6666667  -0.0000000   0.6666667), wk =   0.0046296
        k(  160) = (  -0.8333333   0.1666667   0.5000000), wk =   0.0046296
        k(  161) = (  -1.0000000   0.3333333   0.3333333), wk =   0.0046296
        k(  162) = (  -1.1666667   0.5000000   0.1666667), wk =   0.0046296
        k(  163) = (  -0.1666667  -0.1666667   1.1666667), wk =   0.0046296
        k(  164) = (  -0.3333333  -0.0000000   1.0000000), wk =   0.0046296
        k(  165) = (  -0.5000000   0.1666667   0.8333333), wk =   0.0046296
        k(  166) = (  -0.6666667   0.3333333   0.6666667), wk =   0.0046296
        k(  167) = (  -0.8333333   0.5000000   0.5000000), wk =   0.0046296
        k(  168) = (  -1.0000000   0.6666667   0.3333333), wk =   0.0046296
        k(  169) = (   0.0000000   0.0000000   1.3333333), wk =   0.0046296
        k(  170) = (  -0.1666667   0.1666667   1.1666667), wk =   0.0046296
        k(  171) = (  -0.3333333   0.3333333   1.0000000), wk =   0.0046296
        k(  172) = (  -0.5000000   0.5000000   0.8333333), wk =   0.0046296
        k(  173) = (  -0.6666667   0.6666667   0.6666667), wk =   0.0046296
        k(  174) = (  -0.8333333   0.8333333   0.5000000), wk =   0.0046296
        k(  175) = (   0.1666667   0.1666667   1.5000000), wk =   0.0046296
        k(  176) = (  -0.0000000   0.3333333   1.3333333), wk =   0.0046296
        k(  177) = (  -0.1666667   0.5000000   1.1666667), wk =   0.0046296
        k(  178) = (  -0.3333333   0.6666667   1.0000000), wk =   0.0046296
        k(  179) = (  -0.5000000   0.8333333   0.8333333), wk =   0.0046296
        k(  180) = (  -0.6666667   1.0000000   0.6666667), wk =   0.0046296
        k(  181) = (  -0.8333333  -0.8333333   0.8333333), wk =   0.0046296
        k(  182) = (  -1.0000000  -0.6666667   0.6666667), wk =   0.0046296
        k(  183) = (  -1.1666667  -0.5000000   0.5000000), wk =   0.0046296
        k(  184) = (  -1.3333333  -0.3333333   0.3333333), wk =   0.0046296
        k(  185) = (  -1.5000000  -0.1666667   0.1666667), wk =   0.0046296
        k(  186) = (  -1.6666667   0.0000000   0.0000000), wk =   0.0046296
        k(  187) = (  -0.6666667  -0.6666667   1.0000000), wk =   0.0046296
        k(  188) = (  -0.8333333  -0.5000000   0.8333333), wk =   0.0046296
        k(  189) = (  -1.0000000  -0.3333333   0.6666667), wk =   0.0046296
        k(  190) = (  -1.1666667  -0.1666667   0.5000000), wk =   0.0046296
        k(  191) = (  -1.3333333   0.0000000   0.3333333), wk =   0.0046296
        k(  192) = (  -1.5000000   0.1666667   0.1666667), wk =   0.0046296
        k(  193) = (  -0.5000000  -0.5000000   1.1666667), wk =   0.0046296
        k(  194) = (  -0.6666667  -0.3333333   1.0000000), wk =   0.0046296
        k(  195) = (  -0.8333333  -0.1666667   0.8333333), wk =   0.0046296
        k(  196) = (  -1.0000000   0.0000000   0.6666667), wk =   0.0046296
        k(  197) = (  -1.1666667   0.1666667   0.5000000), wk =   0.0046296
        k(  198) = (  -1.3333333   0.3333333   0.3333333), wk =   0.0046296
        k(  199) = (  -0.3333333  -0.3333333   1.3333333), wk =   0.0046296
        k(  200) = (  -0.5000000  -0.1666667   1.1666667), wk =   0.0046296
        k(  201) = (  -0.6666667   0.0000000   1.0000000), wk =   0.0046296
        k(  202) = (  -0.8333333   0.1666667   0.8333333), wk =   0.0046296
        k(  203) = (  -1.0000000   0.3333333   0.6666667), wk =   0.0046296
        k(  204) = (  -1.1666667   0.5000000   0.5000000), wk =   0.0046296
        k(  205) = (  -0.1666667  -0.1666667   1.5000000), wk =   0.0046296
        k(  206) = (  -0.3333333   0.0000000   1.3333333), wk =   0.0046296
        k(  207) = (  -0.5000000   0.1666667   1.1666667), wk =   0.0046296
        k(  208) = (  -0.6666667   0.3333333   1.0000000), wk =   0.0046296
        k(  209) = (  -0.8333333   0.5000000   0.8333333), wk =   0.0046296
        k(  210) = (  -1.0000000   0.6666667   0.6666667), wk =   0.0046296
        k(  211) = (   0.0000000   0.0000000   1.6666667), wk =   0.0046296
        k(  212) = (  -0.1666667   0.1666667   1.5000000), wk =   0.0046296
        k(  213) = (  -0.3333333   0.3333333   1.3333333), wk =   0.0046296
        k(  214) = (  -0.5000000   0.5000000   1.1666667), wk =   0.0046296
        k(  215) = (  -0.6666667   0.6666667   1.0000000), wk =   0.0046296
        k(  216) = (  -0.8333333   0.8333333   0.8333333), wk =   0.0046296

                       cryst. coord.
        k(    1) = (   0.0000000   0.0000000   0.0000000), wk =   0.0046296
        k(    2) = (   0.0000000   0.0000000   0.1666667), wk =   0.0046296
        k(    3) = (   0.0000000   0.0000000   0.3333333), wk =   0.0046296
        k(    4) = (   0.0000000   0.0000000   0.5000000), wk =   0.0046296
        k(    5) = (   0.0000000   0.0000000   0.6666667), wk =   0.0046296
        k(    6) = (   0.0000000   0.0000000   0.8333333), wk =   0.0046296
        k(    7) = (   0.0000000   0.1666667   0.0000000), wk =   0.0046296
        k(    8) = (   0.0000000   0.1666667   0.1666667), wk =   0.0046296
        k(    9) = (   0.0000000   0.1666667   0.3333333), wk =   0.0046296
        k(   10) = (   0.0000000   0.1666667   0.5000000), wk =   0.0046296
        k(   11) = (   0.0000000   0.1666667   0.6666667), wk =   0.0046296
        k(   12) = (   0.0000000   0.1666667   0.8333333), wk =   0.0046296
        k(   13) = (   0.0000000   0.3333333   0.0000000), wk =   0.0046296
        k(   14) = (   0.0000000   0.3333333   0.1666667), wk =   0.0046296
        k(   15) = (   0.0000000   0.3333333   0.3333333), wk =   0.0046296
        k(   16) = (   0.0000000   0.3333333   0.5000000), wk =   0.0046296
        k(   17) = (   0.0000000   0.3333333   0.6666667), wk =   0.0046296
        k(   18) = (   0.0000000   0.3333333   0.8333333), wk =   0.0046296
        k(   19) = (   0.0000000   0.5000000   0.0000000), wk =   0.0046296
        k(   20) = (   0.0000000   0.5000000   0.1666667), wk =   0.0046296
        k(   21) = (   0.0000000   0.5000000   0.3333333), wk =   0.0046296
        k(   22) = (   0.0000000   0.5000000   0.5000000), wk =   0.0046296
        k(   23) = (   0.0000000   0.5000000   0.6666667), wk =   0.0046296
        k(   24) = (   0.0000000   0.5000000   0.8333333), wk =   0.0046296
        k(   25) = (   0.0000000   0.6666667   0.0000000), wk =   0.0046296
        k(   26) = (   0.0000000   0.6666667   0.1666667), wk =   0.0046296
        k(   27) = (   0.0000000   0.6666667   0.3333333), wk =   0.0046296
        k(   28) = (   0.0000000   0.6666667   0.5000000), wk =   0.0046296
        k(   29) = (   0.0000000   0.6666667   0.6666667), wk =   0.0046296
        k(   30) = (   0.0000000   0.6666667   0.8333333), wk =   0.0046296
        k(   31) = (   0.0000000   0.8333333   0.0000000), wk =   0.0046296
        k(   32) = (   0.0000000   0.8333333   0.1666667), wk =   0.0046296
        k(   33) = (   0.0000000   0.8333333   0.3333333), wk =   0.0046296
        k(   34) = (   0.0000000   0.8333333   0.5000000), wk =   0.0046296
        k(   35) = (   0.0000000   0.8333333   0.6666667), wk =   0.0046296
        k(   36) = (   0.0000000   0.8333333   0.8333333), wk =   0.0046296
        k(   37) = (   0.1666667   0.0000000   0.0000000), wk =   0.0046296
        k(   38) = (   0.1666667   0.0000000   0.1666667), wk =   0.0046296
        k(   39) = (   0.1666667   0.0000000   0.3333333), wk =   0.0046296
        k(   40) = (   0.1666667   0.0000000   0.5000000), wk =   0.0046296
        k(   41) = (   0.1666667   0.0000000   0.6666667), wk =   0.0046296
        k(   42) = (   0.1666667   0.0000000   0.8333333), wk =   0.0046296
        k(   43) = (   0.1666667   0.1666667   0.0000000), wk =   0.0046296
        k(   44) = (   0.1666667   0.1666667   0.1666667), wk =   0.0046296
        k(   45) = (   0.1666667   0.1666667   0.3333333), wk =   0.0046296
        k(   46) = (   0.1666667   0.1666667   0.5000000), wk =   0.0046296
        k(   47) = (   0.1666667   0.1666667   0.6666667), wk =   0.0046296
        k(   48) = (   0.1666667   0.1666667   0.8333333), wk =   0.0046296
        k(   49) = (   0.1666667   0.3333333   0.0000000), wk =   0.0046296
        k(   50) = (   0.1666667   0.3333333   0.1666667), wk =   0.0046296
        k(   51) = (   0.1666667   0.3333333   0.3333333), wk =   0.0046296
        k(   52) = (   0.1666667   0.3333333   0.5000000), wk =   0.0046296
        k(   53) = (   0.1666667   0.3333333   0.6666667), wk =   0.0046296
        k(   54) = (   0.1666667   0.3333333   0.8333333), wk =   0.0046296
        k(   55) = (   0.1666667   0.5000000   0.0000000), wk =   0.0046296
        k(   56) = (   0.1666667   0.5000000   0.1666667), wk =   0.0046296
        k(   57) = (   0.1666667   0.5000000   0.3333333), wk =   0.0046296
        k(   58) = (   0.1666667   0.5000000   0.5000000), wk =   0.0046296
        k(   59) = (   0.1666667   0.5000000   0.6666667), wk =   0.0046296
        k(   60) = (   0.1666667   0.5000000   0.8333333), wk =   0.0046296
        k(   61) = (   0.1666667   0.6666667   0.0000000), wk =   0.0046296
        k(   62) = (   0.1666667   0.6666667   0.1666667), wk =   0.0046296
        k(   63) = (   0.1666667   0.6666667   0.3333333), wk =   0.0046296
        k(   64) = (   0.1666667   0.6666667   0.5000000), wk =   0.0046296
        k(   65) = (   0.1666667   0.6666667   0.6666667), wk =   0.0046296
        k(   66) = (   0.1666667   0.6666667   0.8333333), wk =   0.0046296
        k(   67) = (   0.1666667   0.8333333   0.0000000), wk =   0.0046296
        k(   68) = (   0.1666667   0.8333333   0.1666667), wk =   0.0046296
        k(   69) = (   0.1666667   0.8333333   0.3333333), wk =   0.0046296
        k(   70) = (   0.1666667   0.8333333   0.5000000), wk =   0.0046296
        k(   71) = (   0.1666667   0.8333333   0.6666667), wk =   0.0046296
        k(   72) = (   0.1666667   0.8333333   0.8333333), wk =   0.0046296
        k(   73) = (   0.3333333   0.0000000   0.0000000), wk =   0.0046296
        k(   74) = (   0.3333333   0.0000000   0.1666667), wk =   0.0046296
        k(   75) = (   0.3333333   0.0000000   0.3333333), wk =   0.0046296
        k(   76) = (   0.3333333   0.0000000   0.5000000), wk =   0.0046296
        k(   77) = (   0.3333333   0.0000000   0.6666667), wk =   0.0046296
        k(   78) = (   0.3333333   0.0000000   0.8333333), wk =   0.0046296
        k(   79) = (   0.3333333   0.1666667   0.0000000), wk =   0.0046296
        k(   80) = (   0.3333333   0.1666667   0.1666667), wk =   0.0046296
        k(   81) = (   0.3333333   0.1666667   0.3333333), wk =   0.0046296
        k(   82) = (   0.3333333   0.1666667   0.5000000), wk =   0.0046296
        k(   83) = (   0.3333333   0.1666667   0.6666667), wk =   0.0046296
        k(   84) = (   0.3333333   0.1666667   0.8333333), wk =   0.0046296
        k(   85) = (   0.3333333   0.3333333   0.0000000), wk =   0.0046296
        k(   86) = (   0.3333333   0.3333333   0.1666667), wk =   0.0046296
        k(   87) = (   0.3333333   0.3333333   0.3333333), wk =   0.0046296
        k(   88) = (   0.3333333   0.3333333   0.5000000), wk =   0.0046296
        k(   89) = (   0.3333333   0.3333333   0.6666667), wk =   0.0046296
        k(   90) = (   0.3333333   0.3333333   0.8333333), wk =   0.0046296
        k(   91) = (   0.3333333   0.5000000   0.0000000), wk =   0.0046296
        k(   92) = (   0.3333333   0.5000000   0.1666667), wk =   0.0046296
        k(   93) = (   0.3333333   0.5000000   0.3333333), wk =   0.0046296
        k(   94) = (   0.3333333   0.5000000   0.5000000), wk =   0.0046296
        k(   95) = (   0.3333333   0.5000000   0.6666667), wk =   0.0046296
        k(   96) = (   0.3333333   0.5000000   0.8333333), wk =   0.0046296
        k(   97) = (   0.3333333   0.6666667   0.0000000), wk =   0.0046296
        k(   98) = (   0.3333333   0.6666667   0.1666667), wk =   0.0046296
        k(   99) = (   0.3333333   0.6666667   0.3333333), wk =   0.0046296
        k(  100) = (   0.3333333   0.6666667   0.5000000), wk =   0.0046296
        k(  101) = (   0.3333333   0.6666667   0.6666667), wk =   0.0046296
        k(  102) = (   0.3333333   0.6666667   0.8333333), wk =   0.0046296
        k(  103) = (   0.3333333   0.8333333   0.0000000), wk =   0.0046296
        k(  104) = (   0.3333333   0.8333333   0.1666667), wk =   0.0046296
        k(  105) = (   0.3333333   0.8333333   0.3333333), wk =   0.0046296
        k(  106) = (   0.3333333   0.8333333   0.5000000), wk =   0.0046296
        k(  107) = (   0.3333333   0.8333333   0.6666667), wk =   0.0046296
        k(  108) = (   0.3333333   0.8333333   0.8333333), wk =   0.0046296
        k(  109) = (   0.5000000   0.0000000   0.0000000), wk =   0.0046296
        k(  110) = (   0.5000000   0.0000000   0.1666667), wk =   0.0046296
        k(  111) = (   0.5000000   0.0000000   0.3333333), wk =   0.0046296
        k(  112) = (   0.5000000   0.0000000   0.5000000), wk =   0.0046296
        k(  113) = (   0.5000000   0.0000000   0.6666667), wk =   0.0046296
        k(  114) = (   0.5000000   0.0000000   0.8333333), wk =   0.0046296
        k(  115) = (   0.5000000   0.1666667   0.0000000), wk =   0.0046296
        k(  116) = (   0.5000000   0.1666667   0.1666667), wk =   0.0046296
        k(  117) = (   0.5000000   0.1666667   0.3333333), wk =   0.0046296
        k(  118) = (   0.5000000   0.1666667   0.5000000), wk =   0.0046296
        k(  119) = (   0.5000000   0.1666667   0.6666667), wk =   0.0046296
        k(  120) = (   0.5000000   0.1666667   0.8333333), wk =   0.0046296
        k(  121) = (   0.5000000   0.3333333   0.0000000), wk =   0.0046296
        k(  122) = (   0.5000000   0.3333333   0.1666667), wk =   0.0046296
        k(  123) = (   0.5000000   0.3333333   0.3333333), wk =   0.0046296
        k(  124) = (   0.5000000   0.3333333   0.5000000), wk =   0.0046296
        k(  125) = (   0.5000000   0.3333333   0.6666667), wk =   0.0046296
        k(  126) = (   0.5000000   0.3333333   0.8333333), wk =   0.0046296
        k(  127) = (   0.5000000   0.5000000   0.0000000), wk =   0.0046296
        k(  128) = (   0.5000000   0.5000000   0.1666667), wk =   0.0046296
        k(  129) = (   0.5000000   0.5000000   0.3333333), wk =   0.0046296
        k(  130) = (   0.5000000   0.5000000   0.5000000), wk =   0.0046296
        k(  131) = (   0.5000000   0.5000000   0.6666667), wk =   0.0046296
        k(  132) = (   0.5000000   0.5000000   0.8333333), wk =   0.0046296
        k(  133) = (   0.5000000   0.6666667   0.0000000), wk =   0.0046296
        k(  134) = (   0.5000000   0.6666667   0.1666667), wk =   0.0046296
        k(  135) = (   0.5000000   0.6666667   0.3333333), wk =   0.0046296
        k(  136) = (   0.5000000   0.6666667   0.5000000), wk =   0.0046296
        k(  137) = (   0.5000000   0.6666667   0.6666667), wk =   0.0046296
        k(  138) = (   0.5000000   0.6666667   0.8333333), wk =   0.0046296
        k(  139) = (   0.5000000   0.8333333   0.0000000), wk =   0.0046296
        k(  140) = (   0.5000000   0.8333333   0.1666667), wk =   0.0046296
        k(  141) = (   0.5000000   0.8333333   0.3333333), wk =   0.0046296
        k(  142) = (   0.5000000   0.8333333   0.5000000), wk =   0.0046296
        k(  143) = (   0.5000000   0.8333333   0.6666667), wk =   0.0046296
        k(  144) = (   0.5000000   0.8333333   0.8333333), wk =   0.0046296
        k(  145) = (   0.6666667   0.0000000   0.0000000), wk =   0.0046296
        k(  146) = (   0.6666667   0.0000000   0.1666667), wk =   0.0046296
        k(  147) = (   0.6666667   0.0000000   0.3333333), wk =   0.0046296
        k(  148) = (   0.6666667   0.0000000   0.5000000), wk =   0.0046296
        k(  149) = (   0.6666667   0.0000000   0.6666667), wk =   0.0046296
        k(  150) = (   0.6666667   0.0000000   0.8333333), wk =   0.0046296
        k(  151) = (   0.6666667   0.1666667   0.0000000), wk =   0.0046296
        k(  152) = (   0.6666667   0.1666667   0.1666667), wk =   0.0046296
        k(  153) = (   0.6666667   0.1666667   0.3333333), wk =   0.0046296
        k(  154) = (   0.6666667   0.1666667   0.5000000), wk =   0.0046296
        k(  155) = (   0.6666667   0.1666667   0.6666667), wk =   0.0046296
        k(  156) = (   0.6666667   0.1666667   0.8333333), wk =   0.0046296
        k(  157) = (   0.6666667   0.3333333   0.0000000), wk =   0.0046296
        k(  158) = (   0.6666667   0.3333333   0.1666667), wk =   0.0046296
        k(  159) = (   0.6666667   0.3333333   0.3333333), wk =   0.0046296
        k(  160) = (   0.6666667   0.3333333   0.5000000), wk =   0.0046296
        k(  161) = (   0.6666667   0.3333333   0.6666667), wk =   0.0046296
        k(  162) = (   0.6666667   0.3333333   0.8333333), wk =   0.0046296
        k(  163) = (   0.6666667   0.5000000   0.0000000), wk =   0.0046296
        k(  164) = (   0.6666667   0.5000000   0.1666667), wk =   0.0046296
        k(  165) = (   0.6666667   0.5000000   0.3333333), wk =   0.0046296
        k(  166) = (   0.6666667   0.5000000   0.5000000), wk =   0.0046296
        k(  167) = (   0.6666667   0.5000000   0.6666667), wk =   0.0046296
        k(  168) = (   0.6666667   0.5000000   0.8333333), wk =   0.0046296
        k(  169) = (   0.6666667   0.6666667   0.0000000), wk =   0.0046296
        k(  170) = (   0.6666667   0.6666667   0.1666667), wk =   0.0046296
        k(  171) = (   0.6666667   0.6666667   0.3333333), wk =   0.0046296
        k(  172) = (   0.6666667   0.6666667   0.5000000), wk =   0.0046296
        k(  173) = (   0.6666667   0.6666667   0.6666667), wk =   0.0046296
        k(  174) = (   0.6666667   0.6666667   0.8333333), wk =   0.0046296
        k(  175) = (   0.6666667   0.8333333   0.0000000), wk =   0.0046296
        k(  176) = (   0.6666667   0.8333333   0.1666667), wk =   0.0046296
        k(  177) = (   0.6666667   0.8333333   0.3333333), wk =   0.0046296
        k(  178) = (   0.6666667   0.8333333   0.5000000), wk =   0.0046296
        k(  179) = (   0.6666667   0.8333333   0.6666667), wk =   0.0046296
        k(  180) = (   0.6666667   0.8333333   0.8333333), wk =   0.0046296
        k(  181) = (   0.8333333   0.0000000   0.0000000), wk =   0.0046296
        k(  182) = (   0.8333333   0.0000000   0.1666667), wk =   0.0046296
        k(  183) = (   0.8333333   0.0000000   0.3333333), wk =   0.0046296
        k(  184) = (   0.8333333   0.0000000   0.5000000), wk =   0.0046296
        k(  185) = (   0.8333333   0.0000000   0.6666667), wk =   0.0046296
        k(  186) = (   0.8333333   0.0000000   0.8333333), wk =   0.0046296
        k(  187) = (   0.8333333   0.1666667   0.0000000), wk =   0.0046296
        k(  188) = (   0.8333333   0.1666667   0.1666667), wk =   0.0046296
        k(  189) = (   0.8333333   0.1666667   0.3333333), wk =   0.0046296
        k(  190) = (   0.8333333   0.1666667   0.5000000), wk =   0.0046296
        k(  191) = (   0.8333333   0.1666667   0.6666667), wk =   0.0046296
        k(  192) = (   0.8333333   0.1666667   0.8333333), wk =   0.0046296
        k(  193) = (   0.8333333   0.3333333   0.0000000), wk =   0.0046296
        k(  194) = (   0.8333333   0.3333333   0.1666667), wk =   0.0046296
        k(  195) = (   0.8333333   0.3333333   0.3333333), wk =   0.0046296
        k(  196) = (   0.8333333   0.3333333   0.5000000), wk =   0.0046296
        k(  197) = (   0.8333333   0.3333333   0.6666667), wk =   0.0046296
        k(  198) = (   0.8333333   0.3333333   0.8333333), wk =   0.0046296
        k(  199) = (   0.8333333   0.5000000   0.0000000), wk =   0.0046296
        k(  200) = (   0.8333333   0.5000000   0.1666667), wk =   0.0046296
        k(  201) = (   0.8333333   0.5000000   0.3333333), wk =   0.0046296
        k(  202) = (   0.8333333   0.5000000   0.5000000), wk =   0.0046296
        k(  203) = (   0.8333333   0.5000000   0.6666667), wk =   0.0046296
        k(  204) = (   0.8333333   0.5000000   0.8333333), wk =   0.0046296
        k(  205) = (   0.8333333   0.6666667   0.0000000), wk =   0.0046296
        k(  206) = (   0.8333333   0.6666667   0.1666667), wk =   0.0046296
        k(  207) = (   0.8333333   0.6666667   0.3333333), wk =   0.0046296
        k(  208) = (   0.8333333   0.6666667   0.5000000), wk =   0.0046296
        k(  209) = (   0.8333333   0.6666667   0.6666667), wk =   0.0046296
        k(  210) = (   0.8333333   0.6666667   0.8333333), wk =   0.0046296
        k(  211) = (   0.8333333   0.8333333   0.0000000), wk =   0.0046296
        k(  212) = (   0.8333333   0.8333333   0.1666667), wk =   0.0046296
        k(  213) = (   0.8333333   0.8333333   0.3333333), wk =   0.0046296
        k(  214) = (   0.8333333   0.8333333   0.5000000), wk =   0.0046296
        k(  215) = (   0.8333333   0.8333333   0.6666667), wk =   0.0046296
        k(  216) = (   0.8333333   0.8333333   0.8333333), wk =   0.0046296

     Dense  grid:     3287 G-vectors     FFT dimensions: (  24,  24,  24)

     Dynamical RAM for                 wfc:       0.12 MB

     Dynamical RAM for     wfc (w. buffer):       0.12 MB

     Dynamical RAM for           str. fact:       0.05 MB

     Dynamical RAM for           local pot:       0.00 MB

     Dynamical RAM for          nlocal pot:       0.22 MB

     Dynamical RAM for                qrad:       0.72 MB

     Dynamical RAM for          rho,v,vnew:       0.93 MB

     Dynamical RAM for           G-vectors:       0.21 MB

     Dynamical RAM for          h,s,v(r/c):       0.07 MB

     Dynamical RAM for          <psi|beta>:       0.01 MB

     Dynamical RAM for                 psi:       0.25 MB

     Dynamical RAM for                hpsi:       0.25 MB

     Dynamical RAM for      wfcinit/wfcrot:       0.26 MB

     Estimated static dynamical RAM per process >       3.00 MB

     Estimated max dynamical RAM per process >       3.58 MB
     Generating pointlists ...
     new r_m :   0.1786 (alat units)  1.8330 (a.u.) for type    1

     The potential is recalculated from file :
     ../out/si.save/charge-density

     Starting wfcs are    8 randomized atomic wfcs +   12 random wfcs

     Band Structure Calculation
     Davidson diagonalization with overlap

     Computing kpt #:     1  of   432
     total cpu time spent up to now is        0.3 secs

     Computing kpt #:     2  of   432
     total cpu time spent up to now is        0.3 secs

     Computing kpt #:     3  of   432
     total cpu time spent up to now is        0.4 secs

     Computing kpt #:     4  of   432
     total cpu time spent up to now is        0.5 secs

     Computing kpt #:     5  of   432
     total cpu time spent up to now is        0.6 secs

     Computing kpt #:     6  of   432
     total cpu time spent up to now is        0.7 secs

     Computing kpt #:     7  of   432
     total cpu time spent up to now is        0.8 secs

     Computing kpt #:     8  of   432
     total cpu time spent up to now is        0.8 secs

     Computing kpt #:     9  of   432
     total cpu time spent up to now is        0.9 secs

     Computing kpt #:    10  of   432
     total cpu time spent up to now is        1.0 secs

     Computing kpt #:    11  of   432
     total cpu time spent up to now is        1.1 secs

     Computing kpt #:    12  of   432
     total cpu time spent up to now is        1.2 secs

     Computing kpt #:    13  of   432
     total cpu time spent up to now is        1.3 secs

     Computing kpt #:    14  of   432
     total cpu time spent up to now is        1.3 secs

     Computing kpt #:    15  of   432
     total cpu time spent up to now is        1.4 secs

     Computing kpt #:    16  of   432
     total cpu time spent up to now is        1.5 secs

     Computing kpt #:    17  of   432
     total cpu time spent up to now is        1.6 secs

     Computing kpt #:    18  of   432
     total cpu time spent up to now is        1.7 secs

     Computing kpt #:    19  of   432
     total cpu time spent up to now is        1.8 secs

     Computing kpt #:    20  of   432
     total cpu time spent up to now is        1.9 secs

     Computing kpt #:    21  of   432
     total cpu time spent up to now is        2.0 secs

     Computing kpt #:    22  of   432
     total cpu time spent up to now is        2.1 secs

     Computing kpt #:    23  of   432
     total cpu time spent up to now is        2.2 secs

     Computing kpt #:    24  of   432
     total cpu time spent up to now is        2.3 secs

     Computing kpt #:    25  of   432
     total cpu time spent up to now is        2.3 secs

     Computing kpt #:    26  of   432
     total cpu time spent up to now is        2.4 secs

     Computing kpt #:    27  of   432
     total cpu time spent up to now is        2.5 secs

     Computing kpt #:    28  of   432
     total cpu time spent up to now is        2.6 secs

     Computing kpt #:    29  of   432
     total cpu time spent up to now is        2.7 secs

     Computing kpt #:    30  of   432
     total cpu time spent up to now is        2.8 secs

     Computing kpt #:    31  of   432
     total cpu time spent up to now is        2.9 secs

     Computing kpt #:    32  of   432
     total cpu time spent up to now is        3.0 secs

     Computing kpt #:    33  of   432
     total cpu time spent up to now is        3.1 secs

     Computing kpt #:    34  of   432
     total cpu time spent up to now is        3.2 secs

     Computing kpt #:    35  of   432
     total cpu time spent up to now is        3.2 secs

     Computing kpt #:    36  of   432
     total cpu time spent up to now is        3.3 secs

     Computing kpt #:    37  of   432
     total cpu time spent up to now is        3.4 secs

     Computing kpt #:    38  of   432
     total cpu time spent up to now is        3.5 secs

     Computing kpt #:    39  of   432
     total cpu time spent up to now is        3.6 secs

     Computing kpt #:    40  of   432
     total cpu time spent up to now is        3.6 secs

     Computing kpt #:    41  of   432
     total cpu time spent up to now is        3.7 secs

     Computing kpt #:    42  of   432
     total cpu time spent up to now is        3.8 secs

     Computing kpt #:    43  of   432
     total cpu time spent up to now is        3.9 secs

     Computing kpt #:    44  of   432
     total cpu time spent up to now is        4.0 secs

     Computing kpt #:    45  of   432
     total cpu time spent up to now is        4.0 secs

     Computing kpt #:    46  of   432
     total cpu time spent up to now is        4.1 secs

     Computing kpt #:    47  of   432
     total cpu time spent up to now is        4.2 secs

     Computing kpt #:    48  of   432
     total cpu time spent up to now is        4.3 secs

     Computing kpt #:    49  of   432
     total cpu time spent up to now is        4.4 secs

     Computing kpt #:    50  of   432
     total cpu time spent up to now is        4.5 secs

     Computing kpt #:    51  of   432
     total cpu time spent up to now is        4.6 secs

     Computing kpt #:    52  of   432
     total cpu time spent up to now is        4.6 secs

     Computing kpt #:    53  of   432
     total cpu time spent up to now is        4.7 secs

     Computing kpt #:    54  of   432
     total cpu time spent up to now is        4.8 secs

     Computing kpt #:    55  of   432
     total cpu time spent up to now is        4.9 secs

     Computing kpt #:    56  of   432
     total cpu time spent up to now is        5.0 secs

     Computing kpt #:    57  of   432
     total cpu time spent up to now is        5.1 secs

     Computing kpt #:    58  of   432
     total cpu time spent up to now is        5.2 secs

     Computing kpt #:    59  of   432
     total cpu time spent up to now is        5.3 secs

     Computing kpt #:    60  of   432
     total cpu time spent up to now is        5.3 secs

     Computing kpt #:    61  of   432
     total cpu time spent up to now is        5.4 secs

     Computing kpt #:    62  of   432
     total cpu time spent up to now is        5.5 secs

     Computing kpt #:    63  of   432
     total cpu time spent up to now is        5.6 secs

     Computing kpt #:    64  of   432
     total cpu time spent up to now is        5.7 secs

     Computing kpt #:    65  of   432
     total cpu time spent up to now is        5.8 secs

     Computing kpt #:    66  of   432
     total cpu time spent up to now is        5.9 secs

     Computing kpt #:    67  of   432
     total cpu time spent up to now is        5.9 secs

     Computing kpt #:    68  of   432
     total cpu time spent up to now is        6.0 secs

     Computing kpt #:    69  of   432
     total cpu time spent up to now is        6.1 secs

     Computing kpt #:    70  of   432
     total cpu time spent up to now is        6.2 secs

     Computing kpt #:    71  of   432
     total cpu time spent up to now is        6.3 secs

     Computing kpt #:    72  of   432
     total cpu time spent up to now is        6.4 secs

     Computing kpt #:    73  of   432
     total cpu time spent up to now is        6.5 secs

     Computing kpt #:    74  of   432
     total cpu time spent up to now is        6.5 secs

     Computing kpt #:    75  of   432
     total cpu time spent up to now is        6.6 secs

     Computing kpt #:    76  of   432
     total cpu time spent up to now is        6.7 secs

     Computing kpt #:    77  of   432
     total cpu time spent up to now is        6.8 secs

     Computing kpt #:    78  of   432
     total cpu time spent up to now is        6.9 secs

     Computing kpt #:    79  of   432
     total cpu time spent up to now is        7.0 secs

     Computing kpt #:    80  of   432
     total cpu time spent up to now is        7.1 secs

     Computing kpt #:    81  of   432
     total cpu time spent up to now is        7.2 secs

     Computing kpt #:    82  of   432
     total cpu time spent up to now is        7.2 secs

     Computing kpt #:    83  of   432
     total cpu time spent up to now is        7.3 secs

     Computing kpt #:    84  of   432
     total cpu time spent up to now is        7.4 secs

     Computing kpt #:    85  of   432
     total cpu time spent up to now is        7.5 secs

     Computing kpt #:    86  of   432
     total cpu time spent up to now is        7.6 secs

     Computing kpt #:    87  of   432
     total cpu time spent up to now is        7.7 secs

     Computing kpt #:    88  of   432
     total cpu time spent up to now is        7.8 secs

     Computing kpt #:    89  of   432
     total cpu time spent up to now is        7.8 secs

     Computing kpt #:    90  of   432
     total cpu time spent up to now is        7.9 secs

     Computing kpt #:    91  of   432
     total cpu time spent up to now is        8.0 secs

     Computing kpt #:    92  of   432
     total cpu time spent up to now is        8.1 secs

     Computing kpt #:    93  of   432
     total cpu time spent up to now is        8.2 secs

     Computing kpt #:    94  of   432
     total cpu time spent up to now is        8.3 secs

     Computing kpt #:    95  of   432
     total cpu time spent up to now is        8.4 secs

     Computing kpt #:    96  of   432
     total cpu time spent up to now is        8.5 secs

     Computing kpt #:    97  of   432
     total cpu time spent up to now is        8.6 secs

     Computing kpt #:    98  of   432
     total cpu time spent up to now is        8.6 secs

     Computing kpt #:    99  of   432
     total cpu time spent up to now is        8.7 secs

     Computing kpt #:   100  of   432
     total cpu time spent up to now is        8.8 secs

     Computing kpt #:   101  of   432
     total cpu time spent up to now is        8.9 secs

     Computing kpt #:   102  of   432
     total cpu time spent up to now is        9.0 secs

     Computing kpt #:   103  of   432
     total cpu time spent up to now is        9.1 secs

     Computing kpt #:   104  of   432
     total cpu time spent up to now is        9.1 secs

     Computing kpt #:   105  of   432
     total cpu time spent up to now is        9.2 secs

     Computing kpt #:   106  of   432
     total cpu time spent up to now is        9.3 secs

     Computing kpt #:   107  of   432
     total cpu time spent up to now is        9.4 secs

     Computing kpt #:   108  of   432
     total cpu time spent up to now is        9.5 secs

     Computing kpt #:   109  of   432
     total cpu time spent up to now is        9.6 secs

     Computing kpt #:   110  of   432
     total cpu time spent up to now is        9.7 secs

     Computing kpt #:   111  of   432
     total cpu time spent up to now is        9.8 secs

     Computing kpt #:   112  of   432
     total cpu time spent up to now is        9.9 secs

     Computing kpt #:   113  of   432
     total cpu time spent up to now is        9.9 secs

     Computing kpt #:   114  of   432
     total cpu time spent up to now is       10.0 secs

     Computing kpt #:   115  of   432
     total cpu time spent up to now is       10.1 secs

     Computing kpt #:   116  of   432
     total cpu time spent up to now is       10.2 secs

     Computing kpt #:   117  of   432
     total cpu time spent up to now is       10.3 secs

     Computing kpt #:   118  of   432
     total cpu time spent up to now is       10.4 secs

     Computing kpt #:   119  of   432
     total cpu time spent up to now is       10.5 secs

     Computing kpt #:   120  of   432
     total cpu time spent up to now is       10.6 secs

     Computing kpt #:   121  of   432
     total cpu time spent up to now is       10.7 secs

     Computing kpt #:   122  of   432
     total cpu time spent up to now is       10.7 secs

     Computing kpt #:   123  of   432
     total cpu time spent up to now is       10.8 secs

     Computing kpt #:   124  of   432
     total cpu time spent up to now is       10.9 secs

     Computing kpt #:   125  of   432
     total cpu time spent up to now is       11.0 secs

     Computing kpt #:   126  of   432
     total cpu time spent up to now is       11.1 secs

     Computing kpt #:   127  of   432
     total cpu time spent up to now is       11.2 secs

     Computing kpt #:   128  of   432
     total cpu time spent up to now is       11.3 secs

     Computing kpt #:   129  of   432
     total cpu time spent up to now is       11.4 secs

     Computing kpt #:   130  of   432
     total cpu time spent up to now is       11.4 secs

     Computing kpt #:   131  of   432
     total cpu time spent up to now is       11.5 secs

     Computing kpt #:   132  of   432
     total cpu time spent up to now is       11.6 secs

     Computing kpt #:   133  of   432
     total cpu time spent up to now is       11.7 secs

     Computing kpt #:   134  of   432
     total cpu time spent up to now is       11.8 secs

     Computing kpt #:   135  of   432
     total cpu time spent up to now is       11.9 secs

     Computing kpt #:   136  of   432
     total cpu time spent up to now is       12.0 secs

     Computing kpt #:   137  of   432
     total cpu time spent up to now is       12.1 secs

     Computing kpt #:   138  of   432
     total cpu time spent up to now is       12.2 secs

     Computing kpt #:   139  of   432
     total cpu time spent up to now is       12.2 secs

     Computing kpt #:   140  of   432
     total cpu time spent up to now is       12.3 secs

     Computing kpt #:   141  of   432
     total cpu time spent up to now is       12.4 secs

     Computing kpt #:   142  of   432
     total cpu time spent up to now is       12.5 secs

     Computing kpt #:   143  of   432
     total cpu time spent up to now is       12.6 secs

     Computing kpt #:   144  of   432
     total cpu time spent up to now is       12.7 secs

     Computing kpt #:   145  of   432
     total cpu time spent up to now is       12.8 secs

     Computing kpt #:   146  of   432
     total cpu time spent up to now is       12.8 secs

     Computing kpt #:   147  of   432
     total cpu time spent up to now is       12.9 secs

     Computing kpt #:   148  of   432
     total cpu time spent up to now is       13.0 secs

     Computing kpt #:   149  of   432
     total cpu time spent up to now is       13.1 secs

     Computing kpt #:   150  of   432
     total cpu time spent up to now is       13.2 secs

     Computing kpt #:   151  of   432
     total cpu time spent up to now is       13.3 secs

     Computing kpt #:   152  of   432
     total cpu time spent up to now is       13.4 secs

     Computing kpt #:   153  of   432
     total cpu time spent up to now is       13.5 secs

     Computing kpt #:   154  of   432
     total cpu time spent up to now is       13.6 secs

     Computing kpt #:   155  of   432
     total cpu time spent up to now is       13.7 secs

     Computing kpt #:   156  of   432
     total cpu time spent up to now is       13.7 secs

     Computing kpt #:   157  of   432
     total cpu time spent up to now is       13.8 secs

     Computing kpt #:   158  of   432
     total cpu time spent up to now is       13.9 secs

     Computing kpt #:   159  of   432
     total cpu time spent up to now is       14.0 secs

     Computing kpt #:   160  of   432
     total cpu time spent up to now is       14.1 secs

     Computing kpt #:   161  of   432
     total cpu time spent up to now is       14.2 secs

     Computing kpt #:   162  of   432
     total cpu time spent up to now is       14.2 secs

     Computing kpt #:   163  of   432
     total cpu time spent up to now is       14.3 secs

     Computing kpt #:   164  of   432
     total cpu time spent up to now is       14.4 secs

     Computing kpt #:   165  of   432
     total cpu time spent up to now is       14.5 secs

     Computing kpt #:   166  of   432
     total cpu time spent up to now is       14.6 secs

     Computing kpt #:   167  of   432
     total cpu time spent up to now is       14.7 secs

     Computing kpt #:   168  of   432
     total cpu time spent up to now is       14.8 secs

     Computing kpt #:   169  of   432
     total cpu time spent up to now is       14.9 secs

     Computing kpt #:   170  of   432
     total cpu time spent up to now is       15.0 secs

     Computing kpt #:   171  of   432
     total cpu time spent up to now is       15.1 secs

     Computing kpt #:   172  of   432
     total cpu time spent up to now is       15.2 secs

     Computing kpt #:   173  of   432
     total cpu time spent up to now is       15.3 secs

     Computing kpt #:   174  of   432
     total cpu time spent up to now is       15.4 secs

     Computing kpt #:   175  of   432
     total cpu time spent up to now is       15.4 secs

     Computing kpt #:   176  of   432
     total cpu time spent up to now is       15.5 secs

     Computing kpt #:   177  of   432
     total cpu time spent up to now is       15.6 secs

     Computing kpt #:   178  of   432
     total cpu time spent up to now is       15.7 secs

     Computing kpt #:   179  of   432
     total cpu time spent up to now is       15.8 secs

     Computing kpt #:   180  of   432
     total cpu time spent up to now is       15.9 secs

     Computing kpt #:   181  of   432
     total cpu time spent up to now is       15.9 secs

     Computing kpt #:   182  of   432
     total cpu time spent up to now is       16.0 secs

     Computing kpt #:   183  of   432
     total cpu time spent up to now is       16.1 secs

     Computing kpt #:   184  of   432
     total cpu time spent up to now is       16.2 secs

     Computing kpt #:   185  of   432
     total cpu time spent up to now is       16.3 secs

     Computing kpt #:   186  of   432
     total cpu time spent up to now is       16.4 secs

     Computing kpt #:   187  of   432
[...]

     occupation numbers 
     1.0000   1.0000   1.0000   1.0000   0.0000   0.0000   0.0000   0.0000
     0.0000   0.0000   0.0000   0.0000   0.0000   0.0000   0.0000   0.0000
     0.0000   0.0000   0.0000   0.0000

          k =-0.6667 1.0000 0.6667 (   397 PWs)   bands (ev):

    -4.9674   2.3132   3.6177   5.4877   9.0217   9.5809   9.8372  11.6107
    12.1902  15.3944  16.3164  17.4686  19.3561  21.5857  22.0895  24.6323
    26.5420  26.7227  27.0132  28.5602

     occupation numbers 
     1.0000   1.0000   1.0000   1.0000   0.0000   0.0000   0.0000   0.0000
     0.0000   0.0000   0.0000   0.0000   0.0000   0.0000   0.0000   0.0000
     0.0000   0.0000   0.0000   0.0000

          k =-0.8333-0.8333 0.8333 (   396 PWs)   bands (ev):

    -5.5552   3.6485   5.6012   5.6012   8.3135   9.2342   9.2342  11.3488
    13.1895  13.1895  14.8933  16.5499  19.1321  19.1321  23.1508  26.0121
    26.0121  26.4953  30.0092  30.0092

     occupation numbers 
     1.0000   1.0000   1.0000   1.0000   0.0000   0.0000   0.0000   0.0000
     0.0000   0.0000   0.0000   0.0000   0.0000   0.0000   0.0000   0.0000
     0.0000   0.0000   0.0000   0.0000

          k =-1.0000-0.6667 0.6667 (   397 PWs)   bands (ev):

    -4.9674   2.3132   3.6177   5.4877   9.0217   9.5809   9.8372  11.6107
    12.1902  15.3944  16.3164  17.4686  19.3561  21.5857  22.0895  24.6323
    26.5420  26.7227  27.0132  28.5602

     occupation numbers 
     1.0000   1.0000   1.0000   1.0000   0.0000   0.0000   0.0000   0.0000
     0.0000   0.0000   0.0000   0.0000   0.0000   0.0000   0.0000   0.0000
     0.0000   0.0000   0.0000   0.0000

          k =-1.1667-0.5000 0.5000 (   410 PWs)   bands (ev):

    -3.8104   0.0211   2.9788   4.7514   8.4282  10.1009  10.2576  13.2292
    13.3963  15.3446  17.4241  18.7842  20.7929  21.4767  22.2605  23.9014
    25.9946  27.9546  28.0994  28.9382

     occupation numbers 
     1.0000   1.0000   1.0000   1.0000   0.0000   0.0000   0.0000   0.0000
     0.0000   0.0000   0.0000   0.0000   0.0000   0.0000   0.0000   0.0000
     0.0000   0.0000   0.0000   0.0000

          k =-1.3333-0.3333 0.3333 (   409 PWs)   bands (ev):

    -3.4240  -0.5796   3.2504   4.2704   8.0189  10.0960  10.6551  12.4061
    15.3383  16.5623  17.7026  17.8858  18.5622  22.0664  23.9351  25.0390
    26.1273  26.5942  27.1604  28.7771

     occupation numbers 
     1.0000   1.0000   1.0000   1.0000   0.0000   0.0000   0.0000   0.0000
     0.0000   0.0000   0.0000   0.0000   0.0000   0.0000   0.0000   0.0000
     0.0000   0.0000   0.0000   0.0000

          k =-1.5000-0.1667 0.1667 (   405 PWs)   bands (ev):

    -4.6181   1.5932   4.0394   4.2994   7.9475  10.0396  10.5282  11.1035
    15.0671  15.1835  16.2977  18.7411  19.7913  21.3213  22.0078  22.9594
    25.8108  26.6941  27.6919  29.3664

     occupation numbers 
     1.0000   1.0000   1.0000   1.0000   0.0000   0.0000   0.0000   0.0000
     0.0000   0.0000   0.0000   0.0000   0.0000   0.0000   0.0000   0.0000
     0.0000   0.0000   0.0000   0.0000

          k =-1.6667 0.0000 0.0000 (   399 PWs)   bands (ev):

    -5.4328   3.9898   4.8536   4.8536   7.6924  10.2494  10.3711  10.3711
    12.5919  14.3977  15.5522  18.0502  18.0502  18.6083  24.2488  25.4577
    25.4577  26.8192  27.8417  29.8180

     occupation numbers 
     1.0000   1.0000   1.0000   1.0000   0.0000   0.0000   0.0000   0.0000
     0.0000   0.0000   0.0000   0.0000   0.0000   0.0000   0.0000   0.0000
     0.0000   0.0000   0.0000   0.0000

          k =-0.6667-0.6667 1.0000 (   397 PWs)   bands (ev):

    -4.9674   2.3132   3.6177   5.4877   9.0217   9.5809   9.8372  11.6107
    12.1902  15.3944  16.3164  17.4686  19.3561  21.5857  22.0895  24.6323
    26.5420  26.7227  27.0132  28.5602

     occupation numbers 
     1.0000   1.0000   1.0000   1.0000   0.0000   0.0000   0.0000   0.0000
     0.0000   0.0000   0.0000   0.0000   0.0000   0.0000   0.0000   0.0000
     0.0000   0.0000   0.0000   0.0000

          k =-0.8333-0.5000 0.8333 (   405 PWs)   bands (ev):

    -4.6181   1.5932   4.0394   4.2994   7.9475  10.0396  10.5282  11.1035
    15.0671  15.1835  16.2977  18.7411  19.7913  21.3213  22.0078  22.9594
    25.8108  26.6941  27.6919  29.3664

     occupation numbers 
     1.0000   1.0000   1.0000   1.0000   0.0000   0.0000   0.0000   0.0000
     0.0000   0.0000   0.0000   0.0000   0.0000   0.0000   0.0000   0.0000
     0.0000   0.0000   0.0000   0.0000

          k =-1.0000-0.3333 0.6667 (   407 PWs)   bands (ev):

    -3.6284   0.3911   2.4538   3.7417   8.8429   9.7025  10.2241  13.0714
    15.0276  15.8761  18.9662  19.2339  19.8237  20.9130  22.5310  23.9169
    25.5509  26.9109  27.0348  28.6668

     occupation numbers 
     1.0000   1.0000   1.0000   1.0000   0.0000   0.0000   0.0000   0.0000
     0.0000   0.0000   0.0000   0.0000   0.0000   0.0000   0.0000   0.0000
     0.0000   0.0000   0.0000   0.0000

          k =-1.1667-0.1667 0.5000 (   406 PWs)   bands (ev):

    -2.6413  -0.8079   2.0103   3.2709   9.3464   9.5446  12.0969  12.5012
    13.5660  17.1313  17.9402  19.3967  22.1951  22.8143  23.0302  23.9628
    24.5466  26.4684  26.9307  27.6457

     occupation numbers 
     1.0000   1.0000   1.0000   1.0000   0.0000   0.0000   0.0000   0.0000
     0.0000   0.0000   0.0000   0.0000   0.0000   0.0000   0.0000   0.0000
     0.0000   0.0000   0.0000   0.0000

          k =-1.3333 0.0000 0.3333 (   407 PWs)   bands (ev):

    -3.6284   0.3911   2.4538   3.7417   8.8429   9.7025  10.2241  13.0714
    15.0276  15.8761  18.9662  19.2339  19.8237  20.9130  22.5310  23.9169
    25.5509  26.9109  27.0348  28.6668

     occupation numbers 
     1.0000   1.0000   1.0000   1.0000   0.0000   0.0000   0.0000   0.0000
     0.0000   0.0000   0.0000   0.0000   0.0000   0.0000   0.0000   0.0000
     0.0000   0.0000   0.0000   0.0000

          k =-1.5000 0.1667 0.1667 (   405 PWs)   bands (ev):

    -4.6181   1.5932   4.0394   4.2994   7.9475  10.0396  10.5282  11.1035
    15.0671  15.1835  16.2977  18.7411  19.7913  21.3213  22.0078  22.9594
    25.8108  26.6941  27.6919  29.3664

     occupation numbers 
     1.0000   1.0000   1.0000   1.0000   0.0000   0.0000   0.0000   0.0000
     0.0000   0.0000   0.0000   0.0000   0.0000   0.0000   0.0000   0.0000
     0.0000   0.0000   0.0000   0.0000

          k =-0.5000-0.5000 1.1667 (   410 PWs)   bands (ev):

    -3.8104   0.0211   2.9788   4.7514   8.4282  10.1009  10.2576  13.2292
    13.3963  15.3446  17.4241  18.7842  20.7929  21.4767  22.2605  23.9014
    25.9946  27.9546  28.0994  28.9382

     occupation numbers 
     1.0000   1.0000   1.0000   1.0000   0.0000   0.0000   0.0000   0.0000
     0.0000   0.0000   0.0000   0.0000   0.0000   0.0000   0.0000   0.0000
     0.0000   0.0000   0.0000   0.0000

          k =-0.6667-0.3333 1.0000 (   407 PWs)   bands (ev):

    -3.6284   0.3911   2.4538   3.7417   8.8429   9.7025  10.2241  13.0714
    15.0276  15.8761  18.9662  19.2339  19.8237  20.9130  22.5310  23.9169
    25.5509  26.9109  27.0348  28.6668

     occupation numbers 
     1.0000   1.0000   1.0000   1.0000   0.0000   0.0000   0.0000   0.0000
     0.0000   0.0000   0.0000   0.0000   0.0000   0.0000   0.0000   0.0000
     0.0000   0.0000   0.0000   0.0000

          k =-0.8333-0.1667 0.8333 (   411 PWs)   bands (ev):

    -2.8507  -0.5272   2.3924   3.4897   7.0308   8.7007  13.4510  13.4721
    16.5712  16.7686  18.4227  18.7665  20.6216  21.7390  22.0510  24.5824
    24.7451  25.4200  26.5728  28.7058

     occupation numbers 
     1.0000   1.0000   1.0000   1.0000   0.0000   0.0000   0.0000   0.0000
     0.0000   0.0000   0.0000   0.0000   0.0000   0.0000   0.0000   0.0000
     0.0000   0.0000   0.0000   0.0000

          k =-1.0000 0.0000 0.6667 (   406 PWs)   bands (ev):

    -1.6546  -1.6546   2.3797   2.3797   8.7328   8.7328  12.7561  12.7561
    16.5841  16.5841  18.9566  18.9566  22.4351  22.4351  23.2425  23.2425
    24.7589  24.7589  27.4443  27.4443

     occupation numbers 
     1.0000   1.0000   1.0000   1.0000   0.0000   0.0000   0.0000   0.0000
     0.0000   0.0000   0.0000   0.0000   0.0000   0.0000   0.0000   0.0000
     0.0000   0.0000   0.0000   0.0000

          k =-1.1667 0.1667 0.5000 (   406 PWs)   bands (ev):

    -2.6413  -0.8079   2.0103   3.2709   9.3464   9.5446  12.0969  12.5012
    13.5660  17.1313  17.9402  19.3967  22.1951  22.8143  23.0302  23.9628
    24.5466  26.4684  26.9307  27.6457

     occupation numbers 
     1.0000   1.0000   1.0000   1.0000   0.0000   0.0000   0.0000   0.0000
     0.0000   0.0000   0.0000   0.0000   0.0000   0.0000   0.0000   0.0000
     0.0000   0.0000   0.0000   0.0000

          k =-1.3333 0.3333 0.3333 (   409 PWs)   bands (ev):

    -3.4240  -0.5796   3.2504   4.2704   8.0189  10.0960  10.6551  12.4061
    15.3383  16.5623  17.7026  17.8858  18.5622  22.0664  23.9351  25.0390
    26.1273  26.5942  27.1604  28.7771

     occupation numbers 
     1.0000   1.0000   1.0000   1.0000   0.0000   0.0000   0.0000   0.0000
     0.0000   0.0000   0.0000   0.0000   0.0000   0.0000   0.0000   0.0000
     0.0000   0.0000   0.0000   0.0000

          k =-0.3333-0.3333 1.3333 (   409 PWs)   bands (ev):

    -3.4240  -0.5796   3.2504   4.2704   8.0189  10.0960  10.6551  12.4061
    15.3383  16.5623  17.7026  17.8858  18.5622  22.0664  23.9351  25.0390
    26.1273  26.5942  27.1604  28.7771

     occupation numbers 
     1.0000   1.0000   1.0000   1.0000   0.0000   0.0000   0.0000   0.0000
     0.0000   0.0000   0.0000   0.0000   0.0000   0.0000   0.0000   0.0000
     0.0000   0.0000   0.0000   0.0000

          k =-0.5000-0.1667 1.1667 (   406 PWs)   bands (ev):

    -2.6413  -0.8079   2.0103   3.2709   9.3464   9.5446  12.0969  12.5012
    13.5660  17.1313  17.9402  19.3967  22.1951  22.8143  23.0302  23.9628
    24.5466  26.4684  26.9307  27.6457

     occupation numbers 
     1.0000   1.0000   1.0000   1.0000   0.0000   0.0000   0.0000   0.0000
     0.0000   0.0000   0.0000   0.0000   0.0000   0.0000   0.0000   0.0000
     0.0000   0.0000   0.0000   0.0000

          k =-0.6667 0.0000 1.0000 (   406 PWs)   bands (ev):

    -1.6546  -1.6546   2.3797   2.3797   8.7328   8.7328  12.7561  12.7561
    16.5841  16.5841  18.9566  18.9566  22.4351  22.4351  23.2425  23.2425
    24.7589  24.7589  27.4443  27.4443

     occupation numbers 
     1.0000   1.0000   1.0000   1.0000   0.0000   0.0000   0.0000   0.0000
     0.0000   0.0000   0.0000   0.0000   0.0000   0.0000   0.0000   0.0000
     0.0000   0.0000   0.0000   0.0000

          k =-0.8333 0.1667 0.8333 (   411 PWs)   bands (ev):

    -2.8507  -0.5272   2.3924   3.4897   7.0308   8.7007  13.4510  13.4721
    16.5712  16.7686  18.4227  18.7665  20.6216  21.7390  22.0510  24.5824
    24.7451  25.4200  26.5728  28.7058

     occupation numbers 
     1.0000   1.0000   1.0000   1.0000   0.0000   0.0000   0.0000   0.0000
     0.0000   0.0000   0.0000   0.0000   0.0000   0.0000   0.0000   0.0000
     0.0000   0.0000   0.0000   0.0000

          k =-1.0000 0.3333 0.6667 (   407 PWs)   bands (ev):

    -3.6284   0.3911   2.4538   3.7417   8.8429   9.7025  10.2241  13.0714
    15.0276  15.8761  18.9662  19.2339  19.8237  20.9130  22.5310  23.9169
    25.5509  26.9109  27.0348  28.6668

     occupation numbers 
     1.0000   1.0000   1.0000   1.0000   0.0000   0.0000   0.0000   0.0000
     0.0000   0.0000   0.0000   0.0000   0.0000   0.0000   0.0000   0.0000
     0.0000   0.0000   0.0000   0.0000

          k =-1.1667 0.5000 0.5000 (   410 PWs)   bands (ev):

    -3.8104   0.0211   2.9788   4.7514   8.4282  10.1009  10.2576  13.2292
    13.3963  15.3446  17.4241  18.7842  20.7929  21.4767  22.2605  23.9014
    25.9946  27.9546  28.0994  28.9382

     occupation numbers 
     1.0000   1.0000   1.0000   1.0000   0.0000   0.0000   0.0000   0.0000
     0.0000   0.0000   0.0000   0.0000   0.0000   0.0000   0.0000   0.0000
     0.0000   0.0000   0.0000   0.0000

          k =-0.1667-0.1667 1.5000 (   405 PWs)   bands (ev):

    -4.6181   1.5932   4.0394   4.2994   7.9475  10.0396  10.5282  11.1035
    15.0671  15.1835  16.2977  18.7411  19.7913  21.3213  22.0078  22.9594
    25.8108  26.6941  27.6919  29.3664

     occupation numbers 
     1.0000   1.0000   1.0000   1.0000   0.0000   0.0000   0.0000   0.0000
     0.0000   0.0000   0.0000   0.0000   0.0000   0.0000   0.0000   0.0000
     0.0000   0.0000   0.0000   0.0000

          k =-0.3333 0.0000 1.3333 (   407 PWs)   bands (ev):

    -3.6284   0.3911   2.4538   3.7417   8.8429   9.7025  10.2241  13.0714
    15.0276  15.8761  18.9662  19.2339  19.8237  20.9130  22.5310  23.9169
    25.5509  26.9109  27.0348  28.6668

     occupation numbers 
     1.0000   1.0000   1.0000   1.0000   0.0000   0.0000   0.0000   0.0000
     0.0000   0.0000   0.0000   0.0000   0.0000   0.0000   0.0000   0.0000
     0.0000   0.0000   0.0000   0.0000

          k =-0.5000 0.1667 1.1667 (   406 PWs)   bands (ev):

    -2.6413  -0.8079   2.0103   3.2709   9.3464   9.5446  12.0969  12.5012
    13.5660  17.1313  17.9402  19.3967  22.1951  22.8143  23.0302  23.9628
    24.5466  26.4684  26.9307  27.6457

     occupation numbers 
     1.0000   1.0000   1.0000   1.0000   0.0000   0.0000   0.0000   0.0000
     0.0000   0.0000   0.0000   0.0000   0.0000   0.0000   0.0000   0.0000
     0.0000   0.0000   0.0000   0.0000

          k =-0.6667 0.3333 1.0000 (   407 PWs)   bands (ev):

    -3.6284   0.3911   2.4538   3.7417   8.8429   9.7025  10.2241  13.0714
    15.0276  15.8761  18.9662  19.2339  19.8237  20.9130  22.5310  23.9169
    25.5509  26.9109  27.0348  28.6668

     occupation numbers 
     1.0000   1.0000   1.0000   1.0000   0.0000   0.0000   0.0000   0.0000
     0.0000   0.0000   0.0000   0.0000   0.0000   0.0000   0.0000   0.0000
     0.0000   0.0000   0.0000   0.0000

          k =-0.8333 0.5000 0.8333 (   405 PWs)   bands (ev):

    -4.6181   1.5932   4.0394   4.2994   7.9475  10.0396  10.5282  11.1035
    15.0671  15.1835  16.2977  18.7411  19.7913  21.3213  22.0078  22.9594
    25.8108  26.6941  27.6919  29.3664

     occupation numbers 
     1.0000   1.0000   1.0000   1.0000   0.0000   0.0000   0.0000   0.0000
     0.0000   0.0000   0.0000   0.0000   0.0000   0.0000   0.0000   0.0000
     0.0000   0.0000   0.0000   0.0000

          k =-1.0000 0.6667 0.6667 (   397 PWs)   bands (ev):

    -4.9674   2.3132   3.6177   5.4877   9.0217   9.5809   9.8372  11.6107
    12.1902  15.3944  16.3164  17.4686  19.3561  21.5857  22.0895  24.6323
    26.5420  26.7227  27.0132  28.5602

     occupation numbers 
     1.0000   1.0000   1.0000   1.0000   0.0000   0.0000   0.0000   0.0000
     0.0000   0.0000   0.0000   0.0000   0.0000   0.0000   0.0000   0.0000
     0.0000   0.0000   0.0000   0.0000

          k = 0.0000 0.0000 1.6667 (   399 PWs)   bands (ev):

    -5.4328   3.9898   4.8536   4.8536   7.6924  10.2494  10.3711  10.3711
    12.5919  14.3977  15.5522  18.0502  18.0502  18.6083  24.2488  25.4577
    25.4577  26.8192  27.8417  29.8180

     occupation numbers 
     1.0000   1.0000   1.0000   1.0000   0.0000   0.0000   0.0000   0.0000
     0.0000   0.0000   0.0000   0.0000   0.0000   0.0000   0.0000   0.0000
     0.0000   0.0000   0.0000   0.0000

          k =-0.1667 0.1667 1.5000 (   405 PWs)   bands (ev):

    -4.6181   1.5932   4.0394   4.2994   7.9475  10.0396  10.5282  11.1035
    15.0671  15.1835  16.2977  18.7411  19.7913  21.3213  22.0078  22.9594
    25.8108  26.6941  27.6919  29.3664

     occupation numbers 
     1.0000   1.0000   1.0000   1.0000   0.0000   0.0000   0.0000   0.0000
     0.0000   0.0000   0.0000   0.0000   0.0000   0.0000   0.0000   0.0000
     0.0000   0.0000   0.0000   0.0000

          k =-0.3333 0.3333 1.3333 (   409 PWs)   bands (ev):

    -3.4240  -0.5796   3.2504   4.2704   8.0189  10.0960  10.6551  12.4061
    15.3383  16.5623  17.7026  17.8858  18.5622  22.0664  23.9351  25.0390
    26.1273  26.5942  27.1604  28.7771

     occupation numbers 
     1.0000   1.0000   1.0000   1.0000   0.0000   0.0000   0.0000   0.0000
     0.0000   0.0000   0.0000   0.0000   0.0000   0.0000   0.0000   0.0000
     0.0000   0.0000   0.0000   0.0000

          k =-0.5000 0.5000 1.1667 (   410 PWs)   bands (ev):

    -3.8104   0.0211   2.9788   4.7514   8.4282  10.1009  10.2576  13.2292
    13.3963  15.3446  17.4241  18.7842  20.7929  21.4767  22.2605  23.9014
    25.9946  27.9546  28.0994  28.9382

     occupation numbers 
     1.0000   1.0000   1.0000   1.0000   0.0000   0.0000   0.0000   0.0000
     0.0000   0.0000   0.0000   0.0000   0.0000   0.0000   0.0000   0.0000
     0.0000   0.0000   0.0000   0.0000

          k =-0.6667 0.6667 1.0000 (   397 PWs)   bands (ev):

    -4.9674   2.3132   3.6177   5.4877   9.0217   9.5809   9.8372  11.6107
    12.1902  15.3944  16.3164  17.4686  19.3561  21.5857  22.0895  24.6323
    26.5420  26.7227  27.0132  28.5602

     occupation numbers 
     1.0000   1.0000   1.0000   1.0000   0.0000   0.0000   0.0000   0.0000
     0.0000   0.0000   0.0000   0.0000   0.0000   0.0000   0.0000   0.0000
     0.0000   0.0000   0.0000   0.0000

          k =-0.8333 0.8333 0.8333 (   396 PWs)   bands (ev):

    -5.5552   3.6485   5.6012   5.6012   8.3135   9.2342   9.2342  11.3488
    13.1895  13.1895  14.8933  16.5499  19.1321  19.1321  23.1508  26.0121
    26.0121  26.4953  30.0092  30.0092

     occupation numbers 
     1.0000   1.0000   1.0000   1.0000   0.0000   0.0000   0.0000   0.0000
     0.0000   0.0000   0.0000   0.0000   0.0000   0.0000   0.0000   0.0000
     0.0000   0.0000   0.0000   0.0000

     highest occupied, lowest unoccupied level (ev):     6.0545    6.6720

     Writing all to output data dir ../out/si.save/
 
     init_run     :      0.03s CPU      0.04s WALL (       1 calls)
     electrons    :     36.59s CPU     37.40s WALL (       1 calls)

     Called by init_run:
     wfcinit      :      0.00s CPU      0.00s WALL (       1 calls)
     wfcinit:atom :      0.02s CPU      0.02s WALL (     432 calls)
     wfcinit:wfcr :      1.28s CPU      1.44s WALL (     432 calls)
     potinit      :      0.00s CPU      0.00s WALL (       1 calls)
     hinit0       :      0.01s CPU      0.02s WALL (       1 calls)

     Called by electrons:
     c_bands      :     36.59s CPU     37.37s WALL (       1 calls)
     v_of_rho     :      0.00s CPU      0.00s WALL (       1 calls)
     v_h          :      0.00s CPU      0.00s WALL (       1 calls)
     v_xc         :      0.00s CPU      0.00s WALL (       1 calls)

     Called by c_bands:
     init_us_2    :      0.03s CPU      0.04s WALL (     432 calls)
     init_us_2:cp :      0.03s CPU      0.04s WALL (     432 calls)
     cegterg      :     34.75s CPU     35.30s WALL (     905 calls)

     Called by sum_band:

     Called by *egterg:
     cdiaghg      :      5.44s CPU      5.56s WALL (   14165 calls)
     cegterg:over :      1.29s CPU      1.31s WALL (   13733 calls)
     cegterg:upda :      0.73s CPU      0.74s WALL (   13733 calls)
     cegterg:last :      1.22s CPU      1.24s WALL (    9072 calls)
     h_psi        :     26.78s CPU     27.31s WALL (   15070 calls)
     g_psi        :      0.15s CPU      0.15s WALL (   13733 calls)

     Called by h_psi:
     h_psi:calbec :      0.75s CPU      0.77s WALL (   15070 calls)
     vloc_psi     :     25.23s CPU     25.73s WALL (   15070 calls)
     add_vuspsi   :      0.64s CPU      0.66s WALL (   15070 calls)

     General routines
     calbec       :      0.73s CPU      0.74s WALL (   15070 calls)
     fft          :      0.00s CPU      0.00s WALL (       5 calls)
     fftw         :     22.11s CPU     22.55s WALL (  364510 calls)
     davcio       :      0.11s CPU      0.19s WALL (     864 calls)
 
     Parallel routines
 
     PWSCF        :     36.79s CPU     37.88s WALL

 
   This run was terminated on:  14:28:50  17Oct2022            

=------------------------------------------------------------------------------=
   JOB DONE.
=------------------------------------------------------------------------------=
