
     Program PWSCF v.7.1 starts on 17Oct2022 at 16:39:21 

     This program is part of the open-source Quantum ESPRESSO suite
     for quantum simulation of materials; please cite
         "P. Giannozzi et al., J. Phys.:Condens. Matter 21 395502 (2009);
         "P. Giannozzi et al., J. Phys.:Condens. Matter 29 465901 (2017);
         "P. Giannozzi et al., J. Chem. Phys. 152 154105 (2020);
          URL http://www.quantum-espresso.org", 
     in publications or presentations arising from this work. More details at
     http://www.quantum-espresso.org/quote

     Parallel version (MPI), running on     1 processors

     MPI processes distributed on     1 nodes
     396 MiB available memory on the printing compute node when the environment starts
 
     Reading input from scf.pwi
Warning: card &CELL ignored
Warning: card / ignored

     Current dimensions of program PWSCF are:
     Max number of different atomic species (ntypx) = 10
     Max number of k-points (npk) =  40000
     Max angular momentum in pseudopotentials (lmaxx) =  4
     Message from routine setup:
     using ibrav=0 with symmetry is DISCOURAGED, use correct ibrav instead
 
     Subspace diagonalization in iterative solution of the eigenvalue problem:
     a serial algorithm will be used

 
     G-vector sticks info
     --------------------
     sticks:   dense  smooth     PW     G-vecs:    dense   smooth      PW
     Sum         511     511    151                15291    15291    2527
 
     Using Slab Decomposition
 


     bravais-lattice index     =            0
     lattice parameter (alat)  =       6.1406  a.u.
     unit-cell volume          =     321.2399 (a.u.)^3
     number of atoms/cell      =            4
     number of atomic types    =            2
     number of electrons       =        52.00 (up:  26.00, down:  26.00)
     number of Kohn-Sham states=           26
     kinetic-energy cutoff     =      50.0000  Ry
     charge density cutoff     =     200.0000  Ry
     scf convergence threshold =      1.0E-07
     mixing beta               =       0.7000
     number of iterations used =            8  plain     mixing
     Exchange-correlation= SLA  PW   NOGX NOGC
                           (   1   4   0   0   0   0   0)

     celldm(1)=   6.140571  celldm(2)=   0.000000  celldm(3)=   0.000000
     celldm(4)=   0.000000  celldm(5)=   0.000000  celldm(6)=   0.000000

     crystal axes: (cart. coord. in units of alat)
               a(1) = (  -0.500000  -0.866025   0.000000 )  
               a(2) = (  -0.500000   0.866025   0.000000 )  
               a(3) = (   0.000000   0.000000  -1.602037 )  

     reciprocal axes: (cart. coord. in units 2 pi/alat)
               b(1) = ( -1.000000 -0.577350  0.000000 )  
               b(2) = ( -1.000000  0.577350  0.000000 )  
               b(3) = (  0.000000  0.000000 -0.624205 )  


     PseudoPot. # 1 for Zn read from file:
     ../../../files/pseudo/Zn.upf
     MD5 check sum: 492e12d15cacde48a98384ec5dd6fb31
     Pseudo is Norm-conserving + core correction, Zval = 20.0
     Generated using ONCVPSP code by D. R. Hamann
     Using radial grid of 1296 points,  6 beta functions with: 
                l(1) =   0
                l(2) =   0
                l(3) =   1
                l(4) =   1
                l(5) =   2
                l(6) =   2

     PseudoPot. # 2 for O  read from file:
     ../../../files/pseudo/O.upf
     MD5 check sum: 86ed389b6a5065e60c3f64c68a612de9
     Pseudo is Norm-conserving + core correction, Zval =  6.0
     Generated using ONCVPSP code by D. R. Hamann
     Using radial grid of  926 points,  5 beta functions with: 
                l(1) =   0
                l(2) =   0
                l(3) =   1
                l(4) =   1
                l(5) =   2

     atomic species   valence    mass     pseudopotential
        Zn            20.00    65.38000     Zn( 1.00)
        O              6.00    15.99900     O ( 1.00)

     Starting magnetic structure 
     atomic species   magnetization
        Zn           0.000
        O            0.000

      4 Sym. Ops. (no inversion) found ( 2 have fractional translation)


                                    s                        frac. trans.

      isym =  1     identity                                     

 cryst.   s( 1) = (     1          0          0      )
                  (     0          1          0      )
                  (     0          0          1      )

 cart.    s( 1) = (  1.0000000  0.0000000  0.0000000 )
                  (  0.0000000  1.0000000  0.0000000 )
                  (  0.0000000  0.0000000  1.0000000 )


      isym =  2     180 deg rotation - cart. axis [0,0,1]        

 cryst.   s( 2) = (    -1          0          0      )    f =(  0.0000000 )
                  (     0         -1          0      )       (  0.0000000 )
                  (     0          0          1      )       ( -0.5000000 )

 cart.    s( 2) = ( -1.0000000  0.0000000  0.0000000 )    f =( -0.0000000 )
                  (  0.0000000 -1.0000000  0.0000000 )       (  0.0000000 )
                  (  0.0000000  0.0000000  1.0000000 )       (  0.8010186 )


      isym =  3     inv. 180 deg rotation - cart. axis [0,1,0]   

 cryst.   s( 3) = (     0          1          0      )    f =(  0.0000000 )
                  (     1          0          0      )       (  0.0000000 )
                  (     0          0          1      )       ( -0.5000000 )

 cart.    s( 3) = (  1.0000000  0.0000000  0.0000000 )    f =(  0.0000000 )
                  (  0.0000000 -1.0000000  0.0000000 )       (  0.0000000 )
                  (  0.0000000  0.0000000  1.0000000 )       (  0.8010186 )


      isym =  4     inv. 180 deg rotation - cart. axis [1,0,0]   

 cryst.   s( 4) = (     0         -1          0      )
                  (    -1          0          0      )
                  (     0          0          1      )

 cart.    s( 4) = ( -1.0000000  0.0000000  0.0000000 )
                  (  0.0000000  1.0000000  0.0000000 )
                  (  0.0000000  0.0000000  1.0000000 )


   Cartesian axes

     site n.     atom                  positions (alat units)
         1           Zn  tau(   1) = (  -0.5000000   0.2887329  -0.8010186  )
         2           Zn  tau(   2) = (  -0.5000000  -0.2887329   0.0000000  )
         3           O   tau(   3) = (  -0.5000000   0.2887329  -0.1878389  )
         4           O   tau(   4) = (  -0.5000000  -0.2887329  -0.9888575  )

   Crystallographic axes

     site n.     atom                  positions (cryst. coord.)
         1           Zn  tau(   1) = (  0.3333000  0.6667000  0.5000000  )
         2           Zn  tau(   2) = (  0.6667000  0.3333000  0.0000000  )
         3           O   tau(   3) = (  0.3333000  0.6667000  0.1172500  )
         4           O   tau(   4) = (  0.6667000  0.3333000  0.6172500  )

     number of k points=    21
                       cart. coord. in units 2pi/alat
        k(    1) = (   0.0000000   0.0000000   0.0000000), wk =   0.0156250
        k(    2) = (   0.0000000   0.0000000  -0.1560513), wk =   0.0312500
        k(    3) = (   0.0000000   0.0000000   0.3121026), wk =   0.0156250
        k(    4) = (  -0.2500000   0.1443376   0.0000000), wk =   0.0625000
        k(    5) = (  -0.2500000   0.1443376  -0.1560513), wk =   0.1250000
        k(    6) = (  -0.2500000   0.1443376   0.3121026), wk =   0.0625000
        k(    7) = (   0.5000000  -0.2886751   0.0000000), wk =   0.0312500
        k(    8) = (   0.5000000  -0.2886751  -0.1560513), wk =   0.0625000
        k(    9) = (   0.5000000  -0.2886751   0.3121026), wk =   0.0312500
        k(   10) = (  -0.5000000   0.0000000   0.0000000), wk =   0.0312500
        k(   11) = (  -0.5000000   0.0000000  -0.1560513), wk =   0.0625000
        k(   12) = (  -0.5000000   0.0000000   0.3121026), wk =   0.0312500
        k(   13) = (   0.0000000   0.2886751   0.0000000), wk =   0.0312500
        k(   14) = (   0.0000000   0.2886751  -0.1560513), wk =   0.0625000
        k(   15) = (   0.0000000   0.2886751   0.3121026), wk =   0.0312500
        k(   16) = (   0.0000000  -0.5773503   0.0000000), wk =   0.0156250
        k(   17) = (   0.0000000  -0.5773503  -0.1560513), wk =   0.0312500
        k(   18) = (   0.0000000  -0.5773503   0.3121026), wk =   0.0156250
        k(   19) = (  -0.2500000  -0.4330127   0.0000000), wk =   0.0625000
        k(   20) = (  -0.2500000  -0.4330127  -0.1560513), wk =   0.1250000
        k(   21) = (  -0.2500000  -0.4330127   0.3121026), wk =   0.0625000

                       cryst. coord.
        k(    1) = (   0.0000000   0.0000000   0.0000000), wk =   0.0156250
        k(    2) = (   0.0000000   0.0000000   0.2500000), wk =   0.0312500
        k(    3) = (   0.0000000   0.0000000  -0.5000000), wk =   0.0156250
        k(    4) = (  -0.0000000   0.2500000   0.0000000), wk =   0.0625000
        k(    5) = (  -0.0000000   0.2500000   0.2500000), wk =   0.1250000
        k(    6) = (  -0.0000000   0.2500000  -0.5000000), wk =   0.0625000
        k(    7) = (   0.0000000  -0.5000000   0.0000000), wk =   0.0312500
        k(    8) = (   0.0000000  -0.5000000   0.2500000), wk =   0.0625000
        k(    9) = (   0.0000000  -0.5000000  -0.5000000), wk =   0.0312500
        k(   10) = (   0.2500000   0.2500000   0.0000000), wk =   0.0312500
        k(   11) = (   0.2500000   0.2500000   0.2500000), wk =   0.0625000
        k(   12) = (   0.2500000   0.2500000  -0.5000000), wk =   0.0312500
        k(   13) = (  -0.2500000   0.2500000   0.0000000), wk =   0.0312500
        k(   14) = (  -0.2500000   0.2500000   0.2500000), wk =   0.0625000
        k(   15) = (  -0.2500000   0.2500000  -0.5000000), wk =   0.0312500
        k(   16) = (   0.5000000  -0.5000000   0.0000000), wk =   0.0156250
        k(   17) = (   0.5000000  -0.5000000   0.2500000), wk =   0.0312500
        k(   18) = (   0.5000000  -0.5000000  -0.5000000), wk =   0.0156250
        k(   19) = (   0.5000000  -0.2500000   0.0000000), wk =   0.0625000
        k(   20) = (   0.5000000  -0.2500000   0.2500000), wk =   0.1250000
        k(   21) = (   0.5000000  -0.2500000  -0.5000000), wk =   0.0625000

     Dense  grid:    15291 G-vectors     FFT dimensions: (  27,  27,  48)

     Dynamical RAM for                 wfc:       0.76 MB

     Dynamical RAM for     wfc (w. buffer):      32.72 MB

     Dynamical RAM for           str. fact:       0.47 MB

     Dynamical RAM for           local pot:       0.00 MB

     Dynamical RAM for          nlocal pot:       1.81 MB

     Dynamical RAM for                qrad:       2.27 MB

     Dynamical RAM for          rho,v,vnew:       3.00 MB

     Dynamical RAM for               rhoin:       1.00 MB

     Dynamical RAM for            rho*nmix:       7.47 MB

     Dynamical RAM for           G-vectors:       0.99 MB

     Dynamical RAM for          h,s,v(r/c):       0.12 MB

     Dynamical RAM for          <psi|beta>:       0.02 MB

     Dynamical RAM for                 psi:       1.52 MB

     Dynamical RAM for                hpsi:       1.52 MB

     Dynamical RAM for      wfcinit/wfcrot:       1.66 MB

     Estimated static dynamical RAM per process >      44.57 MB

     Estimated max dynamical RAM per process >      55.23 MB

     Check: negative core charge=   -0.000270
     Generating pointlists ...
     new r_m :   0.2504 (alat units)  1.5377 (a.u.) for type    1
     new r_m :   0.2504 (alat units)  1.5377 (a.u.) for type    2

     Initial potential from superposition of free atoms

     starting charge      51.9998, renormalised to      52.0000
     Starting wfcs are   28 randomized atomic wfcs

     total cpu time spent up to now is        1.0 secs

     Self-consistent Calculation

     iteration #  1     ecut=    50.00 Ry     beta= 0.70
     Davidson diagonalization with overlap

---- Real-time Memory Report at c_bands before calling an iterative solver
            75 MiB given to the printing process from OS
             0 MiB allocation reported by mallinfo(arena+hblkhd)
           340 MiB available memory on the node where the printing process lives
------------------
     ethr =  1.00E-02,  avg # of iterations =  2.0

     total cpu time spent up to now is        3.7 secs

     total energy              =    -900.04493982 Ry
     estimated scf accuracy    <       0.94455358 Ry

     total magnetization       =     0.00 Bohr mag/cell
     absolute magnetization    =     0.00 Bohr mag/cell

     iteration #  2     ecut=    50.00 Ry     beta= 0.70
     Davidson diagonalization with overlap

---- Real-time Memory Report at c_bands before calling an iterative solver
            86 MiB given to the printing process from OS
             0 MiB allocation reported by mallinfo(arena+hblkhd)
           334 MiB available memory on the node where the printing process lives
------------------
     ethr =  1.82E-03,  avg # of iterations =  3.0

     total cpu time spent up to now is        6.4 secs

     total energy              =    -900.27327084 Ry
     estimated scf accuracy    <       1.34570128 Ry

     total magnetization       =     0.00 Bohr mag/cell
     absolute magnetization    =     0.00 Bohr mag/cell

     iteration #  3     ecut=    50.00 Ry     beta= 0.70
     Davidson diagonalization with overlap

---- Real-time Memory Report at c_bands before calling an iterative solver
            87 MiB given to the printing process from OS
             0 MiB allocation reported by mallinfo(arena+hblkhd)
           332 MiB available memory on the node where the printing process lives
------------------
     ethr =  1.82E-03,  avg # of iterations =  2.3

     total cpu time spent up to now is        8.9 secs

     total energy              =    -900.51442804 Ry
     estimated scf accuracy    <       0.00895788 Ry

     total magnetization       =    -0.00 Bohr mag/cell
     absolute magnetization    =     0.00 Bohr mag/cell

     iteration #  4     ecut=    50.00 Ry     beta= 0.70
     Davidson diagonalization with overlap

---- Real-time Memory Report at c_bands before calling an iterative solver
            88 MiB given to the printing process from OS
             0 MiB allocation reported by mallinfo(arena+hblkhd)
           331 MiB available memory on the node where the printing process lives
------------------
     ethr =  1.72E-05,  avg # of iterations =  4.2

     total cpu time spent up to now is       12.0 secs

     total energy              =    -900.52024757 Ry
     estimated scf accuracy    <       0.00879974 Ry

     total magnetization       =     0.00 Bohr mag/cell
     absolute magnetization    =     0.00 Bohr mag/cell

     iteration #  5     ecut=    50.00 Ry     beta= 0.70
     Davidson diagonalization with overlap

---- Real-time Memory Report at c_bands before calling an iterative solver
            90 MiB given to the printing process from OS
             0 MiB allocation reported by mallinfo(arena+hblkhd)
           332 MiB available memory on the node where the printing process lives
------------------
     ethr =  1.69E-05,  avg # of iterations =  2.0

     total cpu time spent up to now is       14.4 secs

     total energy              =    -900.52139432 Ry
     estimated scf accuracy    <       0.00027646 Ry

     total magnetization       =     0.00 Bohr mag/cell
     absolute magnetization    =     0.00 Bohr mag/cell

     iteration #  6     ecut=    50.00 Ry     beta= 0.70
     Davidson diagonalization with overlap

---- Real-time Memory Report at c_bands before calling an iterative solver
            91 MiB given to the printing process from OS
             0 MiB allocation reported by mallinfo(arena+hblkhd)
           332 MiB available memory on the node where the printing process lives
------------------
     ethr =  5.32E-07,  avg # of iterations =  3.2

     total cpu time spent up to now is       17.3 secs

     total energy              =    -900.52152031 Ry
     estimated scf accuracy    <       0.00005166 Ry

     total magnetization       =     0.00 Bohr mag/cell
     absolute magnetization    =     0.00 Bohr mag/cell

     iteration #  7     ecut=    50.00 Ry     beta= 0.70
     Davidson diagonalization with overlap

---- Real-time Memory Report at c_bands before calling an iterative solver
            91 MiB given to the printing process from OS
             0 MiB allocation reported by mallinfo(arena+hblkhd)
           331 MiB available memory on the node where the printing process lives
------------------
     ethr =  9.93E-08,  avg # of iterations =  2.0

     total cpu time spent up to now is       19.7 secs

     total energy              =    -900.52151780 Ry
     estimated scf accuracy    <       0.00001233 Ry

     total magnetization       =     0.00 Bohr mag/cell
     absolute magnetization    =     0.00 Bohr mag/cell

     iteration #  8     ecut=    50.00 Ry     beta= 0.70
     Davidson diagonalization with overlap

---- Real-time Memory Report at c_bands before calling an iterative solver
            92 MiB given to the printing process from OS
             0 MiB allocation reported by mallinfo(arena+hblkhd)
           331 MiB available memory on the node where the printing process lives
------------------
     ethr =  2.37E-08,  avg # of iterations =  2.2
 
     Magnetic moment per site  (integrated on atomic sphere of radius R)
     atom   1 (R=0.250)  charge= 17.3912  magn=  0.0000
     atom   2 (R=0.250)  charge= 17.3912  magn=  0.0000
     atom   3 (R=0.250)  charge=  5.3921  magn= -0.0000
     atom   4 (R=0.250)  charge=  5.3921  magn= -0.0000

     total cpu time spent up to now is       22.1 secs

     End of self-consistent calculation

 ------ SPIN UP ------------


          k = 0.0000 0.0000 0.0000 (  1907 PWs)   bands (ev):

  -115.9193-115.9192 -69.5865 -69.5864 -69.5840 -69.5547 -69.5546 -69.5317
    -8.5724  -7.8080   3.2161   3.2170   3.3992   3.4125   3.4129   3.6188
     4.3158   4.3160   4.4232   4.4234   4.9918   8.4786   8.4798   9.2669
     9.2669   9.2869

     occupation numbers 
     1.0000   1.0000   1.0000   1.0000   1.0000   1.0000   1.0000   1.0000
     1.0000   1.0000   1.0000   1.0000   1.0000   1.0000   1.0000   1.0000
     1.0000   1.0000   1.0000   1.0000   1.0000   1.0000   1.0000   1.0000
     1.0000   1.0000

          k = 0.0000 0.0000-0.1561 (  1882 PWs)   bands (ev):

  -115.9193-115.9191 -69.5867 -69.5656 -69.5299 -69.5299 -69.5263 -69.5262
    -8.4662  -7.9246   3.2283   3.2902   3.2910   3.3182   3.4197   3.4202
     4.3772   4.3773   4.5414   4.5416   5.6502   8.1812   8.6576   8.6587
     9.2031   9.2034

     occupation numbers 
     1.0000   1.0000   1.0000   1.0000   1.0000   1.0000   1.0000   1.0000
     1.0000   1.0000   1.0000   1.0000   1.0000   1.0000   1.0000   1.0000
     1.0000   1.0000   1.0000   1.0000   1.0000   1.0000   1.0000   1.0000
     1.0000   1.0000

          k = 0.0000 0.0000 0.3121 (  1894 PWs)   bands (ev):

  -115.9192-115.9192 -69.6035 -69.6035 -69.5344 -69.5344 -69.5344 -69.5344
    -8.2014  -8.2014   3.1075   3.1075   3.3416   3.3416   3.3423   3.3423
     4.4257   4.4257   4.4257   4.4257   6.9175   6.9175   8.9242   8.9242
     8.9248   8.9248

     occupation numbers 
     1.0000   1.0000   1.0000   1.0000   1.0000   1.0000   1.0000   1.0000
     1.0000   1.0000   1.0000   1.0000   1.0000   1.0000   1.0000   1.0000
     1.0000   1.0000   1.0000   1.0000   1.0000   1.0000   1.0000   1.0000
     1.0000   1.0000

          k =-0.2500 0.1443 0.0000 (  1916 PWs)   bands (ev):

  -115.9193-115.9191 -69.5958 -69.5856 -69.5838 -69.5744 -69.5552 -69.5439
    -8.2554  -7.6835   3.0226   3.3569   3.3835   3.5494   3.6105   3.9047
     4.1989   4.3524   4.5458   4.8105   4.9481   6.6973   7.4124   7.7261
     8.8155   8.8754

     occupation numbers 
     1.0000   1.0000   1.0000   1.0000   1.0000   1.0000   1.0000   1.0000
     1.0000   1.0000   1.0000   1.0000   1.0000   1.0000   1.0000   1.0000
     1.0000   1.0000   1.0000   1.0000   1.0000   1.0000   1.0000   1.0000
     1.0000   1.0000

          k =-0.2500 0.1443-0.1561 (  1908 PWs)   bands (ev):

  -115.9192-115.9191 -69.5961 -69.5760 -69.5674 -69.5571 -69.5479 -69.5456
    -8.1720  -7.7667   2.9736   3.2091   3.4180   3.4824   3.5950   3.6528
     4.3319   4.3935   4.4923   4.6667   5.7734   6.8506   7.2989   7.9233
     8.6506   8.7251

     occupation numbers 
     1.0000   1.0000   1.0000   1.0000   1.0000   1.0000   1.0000   1.0000
     1.0000   1.0000   1.0000   1.0000   1.0000   1.0000   1.0000   1.0000
     1.0000   1.0000   1.0000   1.0000   1.0000   1.0000   1.0000   1.0000
     1.0000   1.0000

          k =-0.2500 0.1443 0.3121 (  1918 PWs)   bands (ev):

  -115.9192-115.9192 -69.5960 -69.5960 -69.5723 -69.5723 -69.5570 -69.5570
    -7.9701  -7.9701   2.9636   2.9636   3.4848   3.4848   3.4917   3.4917
     4.4436   4.4436   4.4654   4.4654   6.5209   6.5209   7.9412   7.9412
     8.3234   8.3234

     occupation numbers 
     1.0000   1.0000   1.0000   1.0000   1.0000   1.0000   1.0000   1.0000
     1.0000   1.0000   1.0000   1.0000   1.0000   1.0000   1.0000   1.0000
     1.0000   1.0000   1.0000   1.0000   1.0000   1.0000   1.0000   1.0000
     1.0000   1.0000

          k = 0.5000-0.2887 0.0000 (  1906 PWs)   bands (ev):

  -115.9192-115.9191 -69.5738 -69.5664 -69.5622 -69.5594 -69.5549 -69.5489
    -7.8522  -7.6180   3.0761   3.3607   3.5113   3.9247   3.9532   3.9668
     4.3723   4.4894   4.5992   4.7304   5.2828   5.5427   6.3684   6.9823
     7.9930   8.4191

     occupation numbers 
     1.0000   1.0000   1.0000   1.0000   1.0000   1.0000   1.0000   1.0000
     1.0000   1.0000   1.0000   1.0000   1.0000   1.0000   1.0000   1.0000
     1.0000   1.0000   1.0000   1.0000   1.0000   1.0000   1.0000   1.0000
     1.0000   1.0000

          k = 0.5000-0.2887-0.1561 (  1932 PWs)   bands (ev):

  -115.9192-115.9192 -69.5978 -69.5947 -69.5889 -69.5841 -69.5840 -69.5727
    -7.8139  -7.6481   2.9823   3.1469   3.5248   3.8322   3.8391   3.8442
     4.4438   4.4697   4.4860   4.6794   5.1579   5.4050   6.9852   7.1829
     8.1419   8.1993

     occupation numbers 
     1.0000   1.0000   1.0000   1.0000   1.0000   1.0000   1.0000   1.0000
     1.0000   1.0000   1.0000   1.0000   1.0000   1.0000   1.0000   1.0000
     1.0000   1.0000   1.0000   1.0000   1.0000   1.0000   1.0000   1.0000
     1.0000   1.0000

          k = 0.5000-0.2887 0.3121 (  1924 PWs)   bands (ev):

  -115.9192-115.9192 -69.5893 -69.5893 -69.5730 -69.5730 -69.5711 -69.5711
    -7.7250  -7.7250   2.9594   2.9594   3.6827   3.6827   3.8017   3.8017
     4.4769   4.4769   4.6297   4.6297   5.2413   5.2413   7.7052   7.7052
     7.8918   7.8918

     occupation numbers 
     1.0000   1.0000   1.0000   1.0000   1.0000   1.0000   1.0000   1.0000
     1.0000   1.0000   1.0000   1.0000   1.0000   1.0000   1.0000   1.0000
     1.0000   1.0000   1.0000   1.0000   1.0000   1.0000   1.0000   1.0000
     1.0000   1.0000

          k =-0.5000 0.0000 0.0000 (  1931 PWs)   bands (ev):

  -115.9192-115.9192 -69.6072 -69.5853 -69.5836 -69.5794 -69.5773 -69.5701
    -7.8646  -7.6128   3.2052   3.3576   3.6331   3.6438   3.9829   4.1342
     4.2090   4.3189   4.5623   4.8608   5.1443   5.8793   6.2942   6.5060
     7.8921   8.0323

     occupation numbers 
     1.0000   1.0000   1.0000   1.0000   1.0000   1.0000   1.0000   1.0000
     1.0000   1.0000   1.0000   1.0000   1.0000   1.0000   1.0000   1.0000
     1.0000   1.0000   1.0000   1.0000   1.0000   1.0000   1.0000   1.0000
     1.0000   1.0000

          k =-0.5000 0.0000-0.1561 (  1924 PWs)   bands (ev):

  -115.9192-115.9191 -69.6037 -69.5863 -69.5783 -69.5729 -69.5622 -69.5571
    -7.8234  -7.6441   3.2037   3.2213   3.5764   3.6027   3.8647   3.8869
     4.2924   4.4574   4.5895   4.8132   5.3388   5.8732   6.4118   7.0668
     7.6730   8.1797

     occupation numbers 
     1.0000   1.0000   1.0000   1.0000   1.0000   1.0000   1.0000   1.0000
     1.0000   1.0000   1.0000   1.0000   1.0000   1.0000   1.0000   1.0000
     1.0000   1.0000   1.0000   1.0000   1.0000   1.0000   1.0000   1.0000
     1.0000   1.0000

          k =-0.5000 0.0000 0.3121 (  1934 PWs)   bands (ev):

  -115.9192-115.9192 -69.6016 -69.6016 -69.5886 -69.5886 -69.5755 -69.5755
    -7.7292  -7.7292   3.1203   3.1203   3.5278   3.5278   3.7622   3.7622
     4.3737   4.3737   4.6706   4.6706   5.6009   5.6009   6.9715   6.9715
     8.0029   8.0029

     occupation numbers 
     1.0000   1.0000   1.0000   1.0000   1.0000   1.0000   1.0000   1.0000
     1.0000   1.0000   1.0000   1.0000   1.0000   1.0000   1.0000   1.0000
     1.0000   1.0000   1.0000   1.0000   1.0000   1.0000   1.0000   1.0000
     1.0000   1.0000

          k = 0.0000 0.2887 0.0000 (  1916 PWs)   bands (ev):

  -115.9193-115.9191 -69.5958 -69.5855 -69.5838 -69.5744 -69.5552 -69.5439
    -8.2554  -7.6835   3.0231   3.3565   3.3826   3.5498   3.6099   3.9049
     4.1993   4.3523   4.5459   4.8107   4.9477   6.6979   7.4130   7.7259
     8.8159   8.8756

     occupation numbers 
     1.0000   1.0000   1.0000   1.0000   1.0000   1.0000   1.0000   1.0000
     1.0000   1.0000   1.0000   1.0000   1.0000   1.0000   1.0000   1.0000
     1.0000   1.0000   1.0000   1.0000   1.0000   1.0000   1.0000   1.0000
     1.0000   1.0000

          k = 0.0000 0.2887-0.1561 (  1908 PWs)   bands (ev):

  -115.9192-115.9191 -69.5960 -69.5759 -69.5675 -69.5571 -69.5479 -69.5456
    -8.1720  -7.7667   2.9739   3.2089   3.4171   3.4826   3.5944   3.6531
     4.3322   4.3934   4.4925   4.6664   5.7735   6.8510   7.2995   7.9231
     8.6509   8.7252

     occupation numbers 
     1.0000   1.0000   1.0000   1.0000   1.0000   1.0000   1.0000   1.0000
     1.0000   1.0000   1.0000   1.0000   1.0000   1.0000   1.0000   1.0000
     1.0000   1.0000   1.0000   1.0000   1.0000   1.0000   1.0000   1.0000
     1.0000   1.0000

          k = 0.0000 0.2887 0.3121 (  1918 PWs)   bands (ev):

  -115.9192-115.9192 -69.5960 -69.5960 -69.5724 -69.5724 -69.5569 -69.5569
    -7.9701  -7.9701   2.9637   2.9637   3.4850   3.4850   3.4909   3.4909
     4.4436   4.4436   4.4655   4.4655   6.5212   6.5212   7.9416   7.9416
     8.3233   8.3233

     occupation numbers 
     1.0000   1.0000   1.0000   1.0000   1.0000   1.0000   1.0000   1.0000
     1.0000   1.0000   1.0000   1.0000   1.0000   1.0000   1.0000   1.0000
     1.0000   1.0000   1.0000   1.0000   1.0000   1.0000   1.0000   1.0000
     1.0000   1.0000

          k = 0.0000-0.5774 0.0000 (  1906 PWs)   bands (ev):

  -115.9192-115.9191 -69.5736 -69.5664 -69.5622 -69.5596 -69.5548 -69.5488
    -7.8525  -7.6178   3.0761   3.3602   3.5102   3.9244   3.9539   3.9657
     4.3726   4.4892   4.5994   4.7311   5.2835   5.5437   6.3672   6.9828
     7.9945   8.4197

     occupation numbers 
     1.0000   1.0000   1.0000   1.0000   1.0000   1.0000   1.0000   1.0000
     1.0000   1.0000   1.0000   1.0000   1.0000   1.0000   1.0000   1.0000
     1.0000   1.0000   1.0000   1.0000   1.0000   1.0000   1.0000   1.0000
     1.0000   1.0000

          k = 0.0000-0.5774-0.1561 (  1932 PWs)   bands (ev):

  -115.9192-115.9192 -69.5978 -69.5948 -69.5889 -69.5842 -69.5840 -69.5727
    -7.8141  -7.6480   2.9824   3.1466   3.5237   3.8322   3.8380   3.8448
     4.4436   4.4697   4.4861   4.6798   5.1582   5.4059   6.9846   7.1835
     8.1429   8.1998

     occupation numbers 
     1.0000   1.0000   1.0000   1.0000   1.0000   1.0000   1.0000   1.0000
     1.0000   1.0000   1.0000   1.0000   1.0000   1.0000   1.0000   1.0000
     1.0000   1.0000   1.0000   1.0000   1.0000   1.0000   1.0000   1.0000
     1.0000   1.0000

          k = 0.0000-0.5774 0.3121 (  1924 PWs)   bands (ev):

  -115.9192-115.9192 -69.5892 -69.5892 -69.5731 -69.5731 -69.5710 -69.5710
    -7.7251  -7.7251   2.9594   2.9594   3.6817   3.6817   3.8020   3.8020
     4.4768   4.4768   4.6299   4.6299   5.2417   5.2417   7.7058   7.7058
     7.8919   7.8919

     occupation numbers 
     1.0000   1.0000   1.0000   1.0000   1.0000   1.0000   1.0000   1.0000
     1.0000   1.0000   1.0000   1.0000   1.0000   1.0000   1.0000   1.0000
     1.0000   1.0000   1.0000   1.0000   1.0000   1.0000   1.0000   1.0000
     1.0000   1.0000

          k =-0.2500-0.4330 0.0000 (  1931 PWs)   bands (ev):

  -115.9192-115.9192 -69.6072 -69.5853 -69.5837 -69.5795 -69.5773 -69.5699
    -7.8647  -7.6127   3.2052   3.3577   3.6331   3.6431   3.9826   4.1337
     4.2090   4.3187   4.5623   4.8608   5.1455   5.8792   6.2949   6.5061
     7.8918   8.0328

     occupation numbers 
     1.0000   1.0000   1.0000   1.0000   1.0000   1.0000   1.0000   1.0000
     1.0000   1.0000   1.0000   1.0000   1.0000   1.0000   1.0000   1.0000
     1.0000   1.0000   1.0000   1.0000   1.0000   1.0000   1.0000   1.0000
     1.0000   1.0000

          k =-0.2500-0.4330-0.1561 (  1924 PWs)   bands (ev):

  -115.9192-115.9191 -69.6037 -69.5862 -69.5783 -69.5729 -69.5622 -69.5570
    -7.8235  -7.6440   3.2039   3.2214   3.5758   3.6028   3.8642   3.8863
     4.2926   4.4576   4.5896   4.8133   5.3397   5.8738   6.4116   7.0671
     7.6725   8.1801

     occupation numbers 
     1.0000   1.0000   1.0000   1.0000   1.0000   1.0000   1.0000   1.0000
     1.0000   1.0000   1.0000   1.0000   1.0000   1.0000   1.0000   1.0000
     1.0000   1.0000   1.0000   1.0000   1.0000   1.0000   1.0000   1.0000
     1.0000   1.0000

          k =-0.2500-0.4330 0.3121 (  1934 PWs)   bands (ev):

  -115.9192-115.9192 -69.6016 -69.6016 -69.5886 -69.5886 -69.5756 -69.5756
    -7.7292  -7.7292   3.1204   3.1204   3.5276   3.5276   3.7615   3.7615
     4.3740   4.3740   4.6707   4.6707   5.6018   5.6018   6.9712   6.9712
     8.0029   8.0029

     occupation numbers 
     1.0000   1.0000   1.0000   1.0000   1.0000   1.0000   1.0000   1.0000
     1.0000   1.0000   1.0000   1.0000   1.0000   1.0000   1.0000   1.0000
     1.0000   1.0000   1.0000   1.0000   1.0000   1.0000   1.0000   1.0000
     1.0000   1.0000

 ------ SPIN DOWN ----------


          k = 0.0000 0.0000 0.0000 (  1907 PWs)   bands (ev):

  -115.9193-115.9192 -69.5865 -69.5864 -69.5840 -69.5547 -69.5546 -69.5317
    -8.5724  -7.8080   3.2161   3.2170   3.3992   3.4125   3.4129   3.6188
     4.3158   4.3160   4.4232   4.4234   4.9918   8.4786   8.4798   9.2669
     9.2669   9.2869

     occupation numbers 
     1.0000   1.0000   1.0000   1.0000   1.0000   1.0000   1.0000   1.0000
     1.0000   1.0000   1.0000   1.0000   1.0000   1.0000   1.0000   1.0000
     1.0000   1.0000   1.0000   1.0000   1.0000   1.0000   1.0000   1.0000
     1.0000   1.0000

          k = 0.0000 0.0000-0.1561 (  1882 PWs)   bands (ev):

  -115.9193-115.9191 -69.5867 -69.5656 -69.5299 -69.5299 -69.5263 -69.5262
    -8.4662  -7.9246   3.2283   3.2902   3.2910   3.3182   3.4197   3.4202
     4.3772   4.3773   4.5414   4.5416   5.6502   8.1812   8.6576   8.6587
     9.2031   9.2034

     occupation numbers 
     1.0000   1.0000   1.0000   1.0000   1.0000   1.0000   1.0000   1.0000
     1.0000   1.0000   1.0000   1.0000   1.0000   1.0000   1.0000   1.0000
     1.0000   1.0000   1.0000   1.0000   1.0000   1.0000   1.0000   1.0000
     1.0000   1.0000

          k = 0.0000 0.0000 0.3121 (  1894 PWs)   bands (ev):

  -115.9192-115.9192 -69.6035 -69.6035 -69.5344 -69.5344 -69.5344 -69.5344
    -8.2014  -8.2014   3.1075   3.1075   3.3416   3.3416   3.3423   3.3423
     4.4257   4.4257   4.4257   4.4257   6.9175   6.9175   8.9242   8.9242
     8.9248   8.9248

     occupation numbers 
     1.0000   1.0000   1.0000   1.0000   1.0000   1.0000   1.0000   1.0000
     1.0000   1.0000   1.0000   1.0000   1.0000   1.0000   1.0000   1.0000
     1.0000   1.0000   1.0000   1.0000   1.0000   1.0000   1.0000   1.0000
     1.0000   1.0000

          k =-0.2500 0.1443 0.0000 (  1916 PWs)   bands (ev):

  -115.9193-115.9191 -69.5958 -69.5856 -69.5838 -69.5744 -69.5552 -69.5439
    -8.2554  -7.6835   3.0226   3.3569   3.3835   3.5494   3.6105   3.9047
     4.1989   4.3524   4.5458   4.8105   4.9481   6.6973   7.4124   7.7261
     8.8155   8.8754

     occupation numbers 
     1.0000   1.0000   1.0000   1.0000   1.0000   1.0000   1.0000   1.0000
     1.0000   1.0000   1.0000   1.0000   1.0000   1.0000   1.0000   1.0000
     1.0000   1.0000   1.0000   1.0000   1.0000   1.0000   1.0000   1.0000
     1.0000   1.0000

          k =-0.2500 0.1443-0.1561 (  1908 PWs)   bands (ev):

  -115.9192-115.9191 -69.5961 -69.5760 -69.5674 -69.5571 -69.5479 -69.5456
    -8.1720  -7.7667   2.9736   3.2091   3.4180   3.4824   3.5950   3.6528
     4.3319   4.3935   4.4923   4.6667   5.7734   6.8506   7.2989   7.9233
     8.6506   8.7251

     occupation numbers 
     1.0000   1.0000   1.0000   1.0000   1.0000   1.0000   1.0000   1.0000
     1.0000   1.0000   1.0000   1.0000   1.0000   1.0000   1.0000   1.0000
     1.0000   1.0000   1.0000   1.0000   1.0000   1.0000   1.0000   1.0000
     1.0000   1.0000

          k =-0.2500 0.1443 0.3121 (  1918 PWs)   bands (ev):

  -115.9192-115.9192 -69.5960 -69.5960 -69.5723 -69.5723 -69.5570 -69.5570
    -7.9701  -7.9701   2.9636   2.9636   3.4848   3.4848   3.4917   3.4917
     4.4436   4.4436   4.4655   4.4655   6.5209   6.5209   7.9412   7.9412
     8.3234   8.3234

     occupation numbers 
     1.0000   1.0000   1.0000   1.0000   1.0000   1.0000   1.0000   1.0000
     1.0000   1.0000   1.0000   1.0000   1.0000   1.0000   1.0000   1.0000
     1.0000   1.0000   1.0000   1.0000   1.0000   1.0000   1.0000   1.0000
     1.0000   1.0000

          k = 0.5000-0.2887 0.0000 (  1906 PWs)   bands (ev):

  -115.9192-115.9191 -69.5738 -69.5664 -69.5622 -69.5594 -69.5549 -69.5489
    -7.8522  -7.6180   3.0761   3.3607   3.5113   3.9247   3.9532   3.9668
     4.3724   4.4894   4.5992   4.7304   5.2828   5.5427   6.3684   6.9823
     7.9930   8.4191

     occupation numbers 
     1.0000   1.0000   1.0000   1.0000   1.0000   1.0000   1.0000   1.0000
     1.0000   1.0000   1.0000   1.0000   1.0000   1.0000   1.0000   1.0000
     1.0000   1.0000   1.0000   1.0000   1.0000   1.0000   1.0000   1.0000
     1.0000   1.0000

          k = 0.5000-0.2887-0.1561 (  1932 PWs)   bands (ev):

  -115.9192-115.9192 -69.5978 -69.5947 -69.5889 -69.5841 -69.5840 -69.5727
    -7.8139  -7.6481   2.9823   3.1469   3.5248   3.8322   3.8391   3.8442
     4.4438   4.4697   4.4860   4.6794   5.1579   5.4050   6.9852   7.1829
     8.1419   8.1993

     occupation numbers 
     1.0000   1.0000   1.0000   1.0000   1.0000   1.0000   1.0000   1.0000
     1.0000   1.0000   1.0000   1.0000   1.0000   1.0000   1.0000   1.0000
     1.0000   1.0000   1.0000   1.0000   1.0000   1.0000   1.0000   1.0000
     1.0000   1.0000

          k = 0.5000-0.2887 0.3121 (  1924 PWs)   bands (ev):

  -115.9192-115.9192 -69.5893 -69.5893 -69.5730 -69.5730 -69.5711 -69.5711
    -7.7250  -7.7250   2.9594   2.9594   3.6827   3.6827   3.8017   3.8017
     4.4769   4.4769   4.6297   4.6297   5.2413   5.2413   7.7052   7.7052
     7.8918   7.8918

     occupation numbers 
     1.0000   1.0000   1.0000   1.0000   1.0000   1.0000   1.0000   1.0000
     1.0000   1.0000   1.0000   1.0000   1.0000   1.0000   1.0000   1.0000
     1.0000   1.0000   1.0000   1.0000   1.0000   1.0000   1.0000   1.0000
     1.0000   1.0000

          k =-0.5000 0.0000 0.0000 (  1931 PWs)   bands (ev):

  -115.9192-115.9192 -69.6072 -69.5853 -69.5836 -69.5794 -69.5773 -69.5701
    -7.8646  -7.6128   3.2052   3.3576   3.6331   3.6438   3.9829   4.1342
     4.2090   4.3189   4.5623   4.8608   5.1443   5.8793   6.2942   6.5060
     7.8921   8.0323

     occupation numbers 
     1.0000   1.0000   1.0000   1.0000   1.0000   1.0000   1.0000   1.0000
     1.0000   1.0000   1.0000   1.0000   1.0000   1.0000   1.0000   1.0000
     1.0000   1.0000   1.0000   1.0000   1.0000   1.0000   1.0000   1.0000
     1.0000   1.0000

          k =-0.5000 0.0000-0.1561 (  1924 PWs)   bands (ev):

  -115.9192-115.9191 -69.6037 -69.5863 -69.5783 -69.5729 -69.5622 -69.5571
    -7.8234  -7.6441   3.2037   3.2213   3.5764   3.6027   3.8647   3.8869
     4.2924   4.4574   4.5895   4.8132   5.3388   5.8732   6.4118   7.0668
     7.6730   8.1797

     occupation numbers 
     1.0000   1.0000   1.0000   1.0000   1.0000   1.0000   1.0000   1.0000
     1.0000   1.0000   1.0000   1.0000   1.0000   1.0000   1.0000   1.0000
     1.0000   1.0000   1.0000   1.0000   1.0000   1.0000   1.0000   1.0000
     1.0000   1.0000

          k =-0.5000 0.0000 0.3121 (  1934 PWs)   bands (ev):

  -115.9192-115.9192 -69.6016 -69.6016 -69.5887 -69.5887 -69.5755 -69.5755
    -7.7292  -7.7292   3.1203   3.1203   3.5278   3.5278   3.7622   3.7622
     4.3737   4.3737   4.6706   4.6706   5.6009   5.6009   6.9715   6.9715
     8.0029   8.0029

     occupation numbers 
     1.0000   1.0000   1.0000   1.0000   1.0000   1.0000   1.0000   1.0000
     1.0000   1.0000   1.0000   1.0000   1.0000   1.0000   1.0000   1.0000
     1.0000   1.0000   1.0000   1.0000   1.0000   1.0000   1.0000   1.0000
     1.0000   1.0000

          k = 0.0000 0.2887 0.0000 (  1916 PWs)   bands (ev):

  -115.9193-115.9191 -69.5958 -69.5855 -69.5838 -69.5744 -69.5552 -69.5439
    -8.2554  -7.6835   3.0231   3.3565   3.3826   3.5498   3.6099   3.9049
     4.1993   4.3523   4.5459   4.8107   4.9477   6.6979   7.4130   7.7259
     8.8159   8.8756

     occupation numbers 
     1.0000   1.0000   1.0000   1.0000   1.0000   1.0000   1.0000   1.0000
     1.0000   1.0000   1.0000   1.0000   1.0000   1.0000   1.0000   1.0000
     1.0000   1.0000   1.0000   1.0000   1.0000   1.0000   1.0000   1.0000
     1.0000   1.0000

          k = 0.0000 0.2887-0.1561 (  1908 PWs)   bands (ev):

  -115.9192-115.9191 -69.5960 -69.5759 -69.5675 -69.5571 -69.5479 -69.5456
    -8.1720  -7.7667   2.9739   3.2089   3.4171   3.4826   3.5944   3.6531
     4.3322   4.3934   4.4925   4.6664   5.7735   6.8510   7.2995   7.9231
     8.6509   8.7252

     occupation numbers 
     1.0000   1.0000   1.0000   1.0000   1.0000   1.0000   1.0000   1.0000
     1.0000   1.0000   1.0000   1.0000   1.0000   1.0000   1.0000   1.0000
     1.0000   1.0000   1.0000   1.0000   1.0000   1.0000   1.0000   1.0000
     1.0000   1.0000

          k = 0.0000 0.2887 0.3121 (  1918 PWs)   bands (ev):

  -115.9192-115.9192 -69.5960 -69.5960 -69.5724 -69.5724 -69.5569 -69.5569
    -7.9701  -7.9701   2.9637   2.9637   3.4850   3.4850   3.4909   3.4909
     4.4436   4.4436   4.4655   4.4655   6.5212   6.5212   7.9415   7.9415
     8.3233   8.3233

     occupation numbers 
     1.0000   1.0000   1.0000   1.0000   1.0000   1.0000   1.0000   1.0000
     1.0000   1.0000   1.0000   1.0000   1.0000   1.0000   1.0000   1.0000
     1.0000   1.0000   1.0000   1.0000   1.0000   1.0000   1.0000   1.0000
     1.0000   1.0000

          k = 0.0000-0.5774 0.0000 (  1906 PWs)   bands (ev):

  -115.9192-115.9191 -69.5736 -69.5664 -69.5622 -69.5596 -69.5548 -69.5488
    -7.8525  -7.6178   3.0761   3.3601   3.5102   3.9244   3.9539   3.9657
     4.3726   4.4892   4.5994   4.7311   5.2835   5.5437   6.3672   6.9828
     7.9945   8.4197

     occupation numbers 
     1.0000   1.0000   1.0000   1.0000   1.0000   1.0000   1.0000   1.0000
     1.0000   1.0000   1.0000   1.0000   1.0000   1.0000   1.0000   1.0000
     1.0000   1.0000   1.0000   1.0000   1.0000   1.0000   1.0000   1.0000
     1.0000   1.0000

          k = 0.0000-0.5774-0.1561 (  1932 PWs)   bands (ev):

  -115.9192-115.9192 -69.5978 -69.5948 -69.5889 -69.5842 -69.5840 -69.5727
    -7.8142  -7.6480   2.9824   3.1466   3.5237   3.8322   3.8380   3.8448
     4.4436   4.4697   4.4861   4.6798   5.1582   5.4059   6.9846   7.1835
     8.1429   8.1998

     occupation numbers 
     1.0000   1.0000   1.0000   1.0000   1.0000   1.0000   1.0000   1.0000
     1.0000   1.0000   1.0000   1.0000   1.0000   1.0000   1.0000   1.0000
     1.0000   1.0000   1.0000   1.0000   1.0000   1.0000   1.0000   1.0000
     1.0000   1.0000

          k = 0.0000-0.5774 0.3121 (  1924 PWs)   bands (ev):

  -115.9192-115.9192 -69.5892 -69.5892 -69.5731 -69.5731 -69.5710 -69.5710
    -7.7251  -7.7251   2.9594   2.9594   3.6817   3.6817   3.8020   3.8020
     4.4768   4.4768   4.6299   4.6299   5.2417   5.2417   7.7058   7.7058
     7.8919   7.8919

     occupation numbers 
     1.0000   1.0000   1.0000   1.0000   1.0000   1.0000   1.0000   1.0000
     1.0000   1.0000   1.0000   1.0000   1.0000   1.0000   1.0000   1.0000
     1.0000   1.0000   1.0000   1.0000   1.0000   1.0000   1.0000   1.0000
     1.0000   1.0000

          k =-0.2500-0.4330 0.0000 (  1931 PWs)   bands (ev):

  -115.9192-115.9192 -69.6072 -69.5853 -69.5837 -69.5795 -69.5773 -69.5699
    -7.8647  -7.6127   3.2052   3.3577   3.6331   3.6431   3.9826   4.1337
     4.2090   4.3187   4.5623   4.8608   5.1455   5.8792   6.2949   6.5061
     7.8918   8.0328

     occupation numbers 
     1.0000   1.0000   1.0000   1.0000   1.0000   1.0000   1.0000   1.0000
     1.0000   1.0000   1.0000   1.0000   1.0000   1.0000   1.0000   1.0000
     1.0000   1.0000   1.0000   1.0000   1.0000   1.0000   1.0000   1.0000
     1.0000   1.0000

          k =-0.2500-0.4330-0.1561 (  1924 PWs)   bands (ev):

  -115.9192-115.9191 -69.6037 -69.5863 -69.5783 -69.5729 -69.5622 -69.5570
    -7.8235  -7.6440   3.2039   3.2214   3.5758   3.6028   3.8642   3.8863
     4.2926   4.4576   4.5896   4.8133   5.3397   5.8738   6.4116   7.0671
     7.6725   8.1801

     occupation numbers 
     1.0000   1.0000   1.0000   1.0000   1.0000   1.0000   1.0000   1.0000
     1.0000   1.0000   1.0000   1.0000   1.0000   1.0000   1.0000   1.0000
     1.0000   1.0000   1.0000   1.0000   1.0000   1.0000   1.0000   1.0000
     1.0000   1.0000

          k =-0.2500-0.4330 0.3121 (  1934 PWs)   bands (ev):

  -115.9192-115.9192 -69.6016 -69.6016 -69.5886 -69.5886 -69.5756 -69.5756
    -7.7292  -7.7292   3.1204   3.1204   3.5276   3.5276   3.7615   3.7615
     4.3740   4.3740   4.6707   4.6707   5.6018   5.6018   6.9712   6.9712
     8.0029   8.0029

     occupation numbers 
     1.0000   1.0000   1.0000   1.0000   1.0000   1.0000   1.0000   1.0000
     1.0000   1.0000   1.0000   1.0000   1.0000   1.0000   1.0000   1.0000
     1.0000   1.0000   1.0000   1.0000   1.0000   1.0000   1.0000   1.0000
     1.0000   1.0000

     highest occupied level (ev):     9.2869

!    total energy              =    -900.52152074 Ry
     estimated scf accuracy    <       0.00000002 Ry

     The total energy is the sum of the following terms:
     one-electron contribution =    -609.76443260 Ry
     hartree contribution      =     321.34194756 Ry
     xc contribution           =    -104.68528045 Ry
     ewald contribution        =    -507.41375525 Ry

     total magnetization       =    -0.00 Bohr mag/cell
     absolute magnetization    =     0.00 Bohr mag/cell

     convergence has been achieved in   8 iterations

     Writing all to output data dir ../out/kc.save/
 
     init_run     :      0.93s CPU      0.95s WALL (       1 calls)
     electrons    :     21.02s CPU     21.14s WALL (       1 calls)

     Called by init_run:
     wfcinit      :      0.83s CPU      0.85s WALL (       1 calls)
     wfcinit:atom :      0.02s CPU      0.02s WALL (      42 calls)
     wfcinit:wfcr :      0.72s CPU      0.74s WALL (      42 calls)
     potinit      :      0.02s CPU      0.02s WALL (       1 calls)
     hinit0       :      0.07s CPU      0.07s WALL (       1 calls)

     Called by electrons:
     c_bands      :     18.32s CPU     18.43s WALL (       8 calls)
     sum_band     :      2.62s CPU      2.63s WALL (       8 calls)
     v_of_rho     :      0.05s CPU      0.05s WALL (       9 calls)
     v_h          :      0.00s CPU      0.00s WALL (       9 calls)
     v_xc         :      0.05s CPU      0.05s WALL (       9 calls)
     mix_rho      :      0.03s CPU      0.03s WALL (       8 calls)

     Called by c_bands:
     init_us_2    :      0.35s CPU      0.35s WALL (     714 calls)
     init_us_2:cp :      0.35s CPU      0.35s WALL (     714 calls)
     cegterg      :     16.43s CPU     16.50s WALL (     336 calls)

     Called by sum_band:
     sum_band:wei :      0.00s CPU      0.00s WALL (       8 calls)
     sum_band:loo :      2.60s CPU      2.61s WALL (       8 calls)
     sum_band:buf :      0.03s CPU      0.03s WALL (     336 calls)
     sum_band:ini :      0.17s CPU      0.17s WALL (     336 calls)

     Called by *egterg:
     cdiaghg      :      0.69s CPU      0.71s WALL (    1216 calls)
     cegterg:over :      0.66s CPU      0.66s WALL (     880 calls)
     cegterg:upda :      0.41s CPU      0.41s WALL (     880 calls)
     cegterg:last :      0.69s CPU      0.69s WALL (     713 calls)
     h_psi        :     14.30s CPU     14.36s WALL (    1258 calls)
     g_psi        :      0.06s CPU      0.06s WALL (     880 calls)

     Called by h_psi:
     h_psi:calbec :      0.74s CPU      0.74s WALL (    1258 calls)
     vloc_psi     :     12.71s CPU     12.77s WALL (    1258 calls)
     add_vuspsi   :      0.78s CPU      0.78s WALL (    1258 calls)

     General routines
     calbec       :      0.73s CPU      0.74s WALL (    1258 calls)
     fft          :      0.01s CPU      0.01s WALL (      43 calls)
     ffts         :      0.00s CPU      0.00s WALL (      16 calls)
     fftw         :     13.49s CPU     13.55s WALL (   58076 calls)
 
     Parallel routines
 
     PWSCF        :     22.02s CPU     22.27s WALL

 
   This run was terminated on:  16:39:43  17Oct2022            

=------------------------------------------------------------------------------=
   JOB DONE.
=------------------------------------------------------------------------------=
