 
             +---------------------------------------------------+
             |                                                   |
             |                   WANNIER90                       |
             |                                                   |
             +---------------------------------------------------+
             |                                                   |
             |        Welcome to the Maximally-Localized         |
             |        Generalized Wannier Functions code         |
             |            http://www.wannier.org                 |
             |                                                   |
             |                                                   |
             |  Wannier90 Developer Group:                       |
             |    Giovanni Pizzi    (EPFL)                       |
             |    Valerio Vitale    (Cambridge)                  |
             |    David Vanderbilt  (Rutgers University)         |
             |    Nicola Marzari    (EPFL)                       |
             |    Ivo Souza         (Universidad del Pais Vasco) |
             |    Arash A. Mostofi  (Imperial College London)    |
             |    Jonathan R. Yates (University of Oxford)       |
             |                                                   |
             |  For the full list of Wannier90 3.x authors,      |
             |  please check the code documentation and the      |
             |  README on the GitHub page of the code            |
             |                                                   |
             |                                                   |
             |  Please cite                                      |
             |                                                   |
             |  [ref] "Wannier90 as a community code:            |
             |        new features and applications",            |
             |        G. Pizzi et al., J. Phys. Cond. Matt. 32,  |
             |        165902 (2020).                             |
             |        http://doi.org/10.1088/1361-648X/ab51ff    |
             |                                                   |
             |  in any publications arising from the use of      |
             |  this code. For the method please cite            |
             |                                                   |
             |  [ref] "Maximally Localized Generalised Wannier   |
             |         Functions for Composite Energy Bands"     |
             |         N. Marzari and D. Vanderbilt              |
             |         Phys. Rev. B 56 12847 (1997)              |
             |                                                   |
             |  [ref] "Maximally Localized Wannier Functions     |
             |         for Entangled Energy Bands"               |
             |         I. Souza, N. Marzari and D. Vanderbilt    |
             |         Phys. Rev. B 65 035109 (2001)             |
             |                                                   |
             |                                                   |
             | Copyright (c) 1996-2020                           |
             |        The Wannier90 Developer Group and          |
             |        individual contributors                    |
             |                                                   |
             |      Release: 3.1.0        5th March    2020      |
             |                                                   |
             | This program is free software; you can            |
             | redistribute it and/or modify it under the terms  |
             | of the GNU General Public License as published by |
             | the Free Software Foundation; either version 2 of |
             | the License, or (at your option) any later version|
             |                                                   |
             | This program is distributed in the hope that it   |
             | will be useful, but WITHOUT ANY WARRANTY; without |
             | even the implied warranty of MERCHANTABILITY or   |
             | FITNESS FOR A PARTICULAR PURPOSE. See the GNU     |
             | General Public License for more details.          |
             |                                                   |
             | You should have received a copy of the GNU General|
             | Public License along with this program; if not,   |
             | write to the Free Software Foundation, Inc.,      |
             | 675 Mass Ave, Cambridge, MA 02139, USA.           |
             |                                                   |
             +---------------------------------------------------+
             |    Execution started on 17Oct2022 at 15:19:20     |
             +---------------------------------------------------+
 
 ******************************************************************************
 * -> Using CODATA 2006 constant values                                       *
 *    (http://physics.nist.gov/cuu/Constants/index.html)                      *
 * -> Using Bohr value from CODATA                                            *
 ******************************************************************************
 

 Running in serial (with serial executable)
 
                                    ------
                                    SYSTEM
                                    ------
 
                              Lattice Vectors (Ang)
                    a_1    -2.715261   0.000000   2.715261
                    a_2     0.000000   2.715261   2.715261
                    a_3    -2.715261   2.715261   0.000000
 
                   Unit Cell Volume:      40.03730  (Ang^3)
 
                        Reciprocal-Space Vectors (Ang^-1)
                    b_1    -1.157013  -1.157013   1.157013
                    b_2     1.157013   1.157013   1.157013
                    b_3    -1.157013   1.157013  -1.157013
  
 *----------------------------------------------------------------------------*
 |   Site       Fractional Coordinate          Cartesian Coordinate (Ang)     |
 +----------------------------------------------------------------------------+
 | Si   1   0.00000   0.00000   0.00000   |    0.00000   0.00000   0.00000    |
 | Si   2   0.25000   0.25000   0.25000   |   -1.35763   1.35763   1.35763    |
 *----------------------------------------------------------------------------*
                                ------------
                                K-POINT GRID
                                ------------
  
             Grid size =  6 x  6 x  6      Total points =  216
  
  
 *---------------------------------- MAIN ------------------------------------*
 |  Number of Wannier Functions               :                 8             |
 |  Number of Objective Wannier Functions     :                 8             |
 |  Number of input Bloch states              :                 8             |
 |  Output verbosity (1=low, 5=high)          :                 1             |
 |  Timing Level (1=low, 5=high)              :                 1             |
 |  Optimisation (0=memory, 3=speed)          :                 3             |
 |  Length Unit                               :               Ang             |
 |  Post-processing setup (write *.nnkp)      :                 F             |
 |  Using Gamma-only branch of algorithms     :                 F             |
 *----------------------------------------------------------------------------*
 *------------------------------- WANNIERISE ---------------------------------*
 |  Total number of iterations                :             10000             |
 |  Number of CG steps before reset           :                 5             |
 |  Trial step length for line search         :             2.000             |
 |  Convergence tolerence                     :         0.100E-09             |
 |  Convergence window                        :                 5             |
 |  Iterations between writing output         :                 1             |
 |  Iterations between backing up to disk     :               100             |
 |  Write r^2_nm to file                      :                 F             |
 |  Write xyz WF centres to file              :                 T             |
 |  Write on-site energies <0n|H|0n> to file  :                 F             |
 |  Use guiding centre to control phases      :                 T             |
 |  Use phases for initial projections        :                 F             |
 |  Iterations before starting guiding centres:                 0             |
 |  Iterations between using guiding centres  :                 1             |
 *----------------------------------------------------------------------------*
 *-------------------------------- PLOTTING ----------------------------------*
 |  Plotting interpolated bandstructure       :                 T             |
 |   Number of K-path sections                :                 4             |
 |   Divisions along first K-path section     :               100             |
 |   Output format                            :           gnuplot             |
 |   Output mode                              :               s-k             |
 *----------------------------------------------------------------------------*
 |   K-space path sections:                                                   |
 |    From: L       0.500  0.500  0.500     To: G       0.000  0.000  0.000   |
 |    From: G       0.000  0.000  0.000     To: X       0.500  0.000  0.500   |
 |    From: X       0.500  0.000  0.500     To: K       0.375  0.375  0.750   |
 |    From: K       0.375  0.375  0.750     To: G       0.000  0.000  0.000   |
 *----------------------------------------------------------------------------*
 |  Plotting Hamiltonian in WF basis          :                 T             |
 *----------------------------------------------------------------------------*
 Time to read parameters        0.019 (sec)

 *---------------------------------- K-MESH ----------------------------------*
 +----------------------------------------------------------------------------+
 |                    Distance to Nearest-Neighbour Shells                    |
 |                    ------------------------------------                    |
 |          Shell             Distance (Ang^-1)          Multiplicity         |
 |          -----             -----------------          ------------         |
 |             1                   0.334001                      8            |
 |             2                   0.385671                      6            |
 |             3                   0.545421                     12            |
 |             4                   0.639563                     24            |
 |             5                   0.668002                      8            |
 |             6                   0.771342                      6            |
 |             7                   0.840550                     24            |
 |             8                   0.862387                     24            |
 |             9                   0.944697                     24            |
 |            10                   1.002003                     32            |
 |            11                   1.090842                     12            |
 |            12                   1.140830                     48            |
 |            13                   1.157013                     30            |
 |            14                   1.219599                     24            |
 |            15                   1.264507                     24            |
 |            16                   1.279126                     24            |
 |            17                   1.336004                      8            |
 |            18                   1.377121                     48            |
 |            19                   1.390557                     24            |
 |            20                   1.443049                     48            |
 |            21                   1.481198                     72            |
 |            22                   1.542684                      6            |
 |            23                   1.578427                     24            |
 |            24                   1.590162                     48            |
 |            25                   1.636264                     36            |
 |            26                   1.670004                     56            |
 |            27                   1.681101                     24            |
 |            28                   1.724773                     24            |
 |            29                   1.756815                     72            |
 |            30                   1.767367                     48            |
 |            31                   1.808957                     24            |
 |            32                   1.839534                     48            |
 |            33                   1.889394                     24            |
 |            34                   1.918689                     72            |
 |            35                   1.928355                     30            |
 |            36                   1.966544                     72            |
 +----------------------------------------------------------------------------+
 | The b-vectors are chosen automatically                                     |
 | The following shells are used:   1                                         |
 +----------------------------------------------------------------------------+
 |                        Shell   # Nearest-Neighbours                        |
 |                        -----   --------------------                        |
 |                          1               8                                 |
 +----------------------------------------------------------------------------+
 | Completeness relation is fully satisfied [Eq. (B1), PRB 56, 12847 (1997)]  |
 +----------------------------------------------------------------------------+
 |                  b_k Vectors (Ang^-1) and Weights (Ang^2)                  |
 |                  ----------------------------------------                  |
 |            No.         b_k(x)      b_k(y)      b_k(z)        w_b           |
 |            ---        --------------------------------     --------        |
 |             1        -0.192836    0.192836   -0.192836     3.361522        |
 |             2         0.192836    0.192836    0.192836     3.361522        |
 |             3        -0.192836   -0.192836    0.192836     3.361522        |
 |             4        -0.192836    0.192836    0.192836     3.361522        |
 |             5         0.192836   -0.192836    0.192836     3.361522        |
 |             6        -0.192836   -0.192836   -0.192836     3.361522        |
 |             7         0.192836    0.192836   -0.192836     3.361522        |
 |             8         0.192836   -0.192836   -0.192836     3.361522        |
 +----------------------------------------------------------------------------+
 |                           b_k Directions (Ang^-1)                          |
 |                           -----------------------                          |
 |            No.           x           y           z                         |
 |            ---        --------------------------------                     |
 |             1        -0.192836    0.192836   -0.192836                     |
 |             2         0.192836    0.192836    0.192836                     |
 |             3        -0.192836   -0.192836    0.192836                     |
 |             4        -0.192836    0.192836    0.192836                     |
 +----------------------------------------------------------------------------+
  
 Time to get kmesh              0.106 (sec)
 *============================================================================*
 |                              MEMORY ESTIMATE                               |
 |         Maximum RAM allocated during each phase of the calculation         |
 *============================================================================*
 |                            Wannierise:            4.85 Mb                  |
 |                          plot_wannier:            4.85 Mb                  |
 *----------------------------------------------------------------------------*
  
 Starting a new Wannier90 calculation ...


 Reading overlaps from wann.mmn    :  Created on 17Oct2022 at 15:19:18

 Reading projections from wann.amn :  Created on 17Oct2022 at 15:19: 9

 Time to read overlaps          0.092 (sec)

 Writing checkpoint file wann.chk... done

 
 *------------------------------- WANNIERISE ---------------------------------*
 +--------------------------------------------------------------------+<-- CONV
 | Iter  Delta Spread     RMS Gradient      Spread (Ang^2)      Time  |<-- CONV
 +--------------------------------------------------------------------+<-- CONV
 
 ------------------------------------------------------------------------------
 Initial State
  WF centre and spread    1  ( -2.847894,  2.918845,  4.324638 )    11.12366481
  WF centre and spread    2  ( -2.786817,  2.892249,  1.819957 )     7.19038722
  WF centre and spread    3  ( -0.930310,  1.089131,  0.693704 )     3.92137899
  WF centre and spread    4  ( -2.963514,  4.654739,  3.270812 )     6.73409131
  WF centre and spread    5  ( -3.848613,  6.069574,  3.976440 )     8.20679186
  WF centre and spread    6  ( -4.807597,  3.130891,  3.158959 )     3.63142154
  WF centre and spread    7  ( -3.598067,  2.339078,  4.611648 )     6.91421020
  WF centre and spread    8  ( -4.750172,  4.901655,  5.060403 )     7.30146879
  Sum of centres and spreads (-26.532983, 27.996163, 26.916562 )    55.02341474
 
      0     0.550E+02     0.0000000000       55.0234019088       0.00  <-- CONV
        O_D=      5.1809176 O_OD=     32.6340624 O_TOT=     55.0234019 <-- SPRD
 ------------------------------------------------------------------------------
 Cycle:      1
  WF centre and spread    1  ( -2.853265,  2.938875,  4.308539 )     9.80819201
  WF centre and spread    2  ( -2.792702,  2.893669,  1.827459 )     6.99505490
  WF centre and spread    3  ( -0.929568,  1.097837,  0.692063 )     3.78008905
  WF centre and spread    4  ( -2.965341,  4.674137,  3.274892 )     6.55984175
  WF centre and spread    5  ( -3.851042,  6.089383,  3.979748 )     7.88167160
  WF centre and spread    6  ( -4.813025,  3.134025,  3.158595 )     3.53734731
  WF centre and spread    7  ( -3.621231,  2.330374,  4.611401 )     6.83222741
  WF centre and spread    8  ( -4.767013,  4.914436,  5.061517 )     7.00746756
  Sum of centres and spreads (-26.593187, 28.072736, 26.914214 )    52.40189159
 
      1    -0.262E+01     2.4937836179       52.4018787202       0.01  <-- CONV
        O_D=      3.9588785 O_OD=     31.2345782 O_TOT=     52.4018787 <-- SPRD
 Delta: O_D= -0.1222039E+01 O_OD= -0.1399484E+01 O_TOT= -0.2621523E+01 <-- DLTA
 ------------------------------------------------------------------------------
 Cycle:      2
  WF centre and spread    1  ( -2.801784,  3.013577,  4.301994 )     7.86164472
  WF centre and spread    2  ( -2.818703,  2.898333,  1.859741 )     6.53161379
  WF centre and spread    3  ( -0.927553,  1.139990,  0.682793 )     3.29480803
  WF centre and spread    4  ( -2.979501,  4.771666,  3.293954 )     5.83239291
  WF centre and spread    5  ( -3.862865,  6.192731,  3.989209 )     6.85597785
  WF centre and spread    6  ( -4.843636,  3.151410,  3.155133 )     3.23650924
  WF centre and spread    7  ( -3.720925,  2.307830,  4.604453 )     6.47788502
  WF centre and spread    8  ( -4.856556,  4.979653,  5.066663 )     5.97473793
  Sum of centres and spreads (-26.811524, 28.455191, 26.953940 )    46.06556948
 
      2    -0.634E+01     1.8363099214       46.0655563860       0.03  <-- CONV
        O_D=      3.0603198 O_OD=     25.7968146 O_TOT=     46.0655564 <-- SPRD
 Delta: O_D= -0.8985587E+00 O_OD= -0.5437764E+01 O_TOT= -0.6336322E+01 <-- DLTA
 ------------------------------------------------------------------------------
 Cycle:      3
  WF centre and spread    1  ( -2.840229,  3.031154,  4.346308 )     7.07893907
  WF centre and spread    2  ( -2.846336,  2.909991,  1.878165 )     6.55899431
  WF centre and spread    3  ( -0.929265,  1.164411,  0.675683 )     3.13991683
  WF centre and spread    4  ( -2.992727,  4.833950,  3.301341 )     5.47394362
  WF centre and spread    5  ( -3.879464,  6.268277,  3.990389 )     6.45500688
  WF centre and spread    6  ( -4.870786,  3.165480,  3.151367 )     3.12989966
  WF centre and spread    7  ( -3.780113,  2.303479,  4.621722 )     6.11716071
  WF centre and spread    8  ( -4.923917,  5.025928,  5.070248 )     5.51008656
  Sum of centres and spreads (-27.062837, 28.702670, 27.035224 )    43.46394765
 
      3    -0.260E+01     1.7709253211       43.4639343580       0.05  <-- CONV
        O_D=      2.9456875 O_OD=     23.3098249 O_TOT=     43.4639344 <-- SPRD
 Delta: O_D= -0.1146323E+00 O_OD= -0.2486990E+01 O_TOT= -0.2601622E+01 <-- DLTA
 ------------------------------------------------------------------------------
 Cycle:      4
  WF centre and spread    1  ( -2.859481,  3.073983,  4.382695 )     6.27386555
  WF centre and spread    2  ( -2.870214,  2.926808,  1.885241 )     6.66896341
  WF centre and spread    3  ( -0.936091,  1.183457,  0.669237 )     3.06786706
  WF centre and spread    4  ( -2.997326,  4.885376,  3.297849 )     5.25031595
  WF centre and spread    5  ( -3.893580,  6.328177,  3.982109 )     6.12183334
  WF centre and spread    6  ( -4.898521,  3.179486,  3.148788 )     3.05411251
  WF centre and spread    7  ( -3.827819,  2.295252,  4.625254 )     5.79197678
  WF centre and spread    8  ( -4.985576,  5.068049,  5.075414 )     5.10540843
  Sum of centres and spreads (-27.268608, 28.940588, 27.066586 )    41.33434303
 
      4    -0.213E+01     1.7479621742       41.3343295749       0.07  <-- CONV
        O_D=      2.5564133 O_OD=     21.5694943 O_TOT=     41.3343296 <-- SPRD
 Delta: O_D= -0.3892742E+00 O_OD= -0.1740331E+01 O_TOT= -0.2129605E+01 <-- DLTA
 ------------------------------------------------------------------------------
 Cycle:      5
  WF centre and spread    1  ( -2.868600,  3.114987,  4.419873 )     5.83666863
  WF centre and spread    2  ( -2.889039,  2.951764,  1.882672 )     6.76127743
  WF centre and spread    3  ( -0.945521,  1.197600,  0.665261 )     3.02034591
  WF centre and spread    4  ( -2.996169,  4.917814,  3.290465 )     5.08583872
  WF centre and spread    5  ( -3.908351,  6.366443,  3.973298 )     5.85619618
  WF centre and spread    6  ( -4.917735,  3.190041,  3.150343 )     2.99738604
  WF centre and spread    7  ( -3.859044,  2.283583,  4.624454 )     5.59149132
  WF centre and spread    8  ( -5.021153,  5.090724,  5.077922 )     4.77537879
  Sum of centres and spreads (-27.405611, 29.112956, 27.084289 )    39.92458302
 
      5    -0.141E+01     1.6803754078       39.9245694512       0.08  <-- CONV
        O_D=      2.4259885 O_OD=     20.2901590 O_TOT=     39.9245695 <-- SPRD
 Delta: O_D= -0.1304248E+00 O_OD= -0.1279335E+01 O_TOT= -0.1409760E+01 <-- DLTA
 ------------------------------------------------------------------------------
 Cycle:      6
  WF centre and spread    1  ( -2.874682,  3.160781,  4.465191 )     5.50646590
  WF centre and spread    2  ( -2.913200,  2.995605,  1.873342 )     6.85657375
  WF centre and spread    3  ( -0.956916,  1.210540,  0.663301 )     2.97405698
  WF centre and spread    4  ( -2.996491,  4.938072,  3.281781 )     4.87848774
  WF centre and spread    5  ( -3.928282,  6.396717,  3.967862 )     5.59432232
  WF centre and spread    6  ( -4.930673,  3.198423,  3.154983 )     2.94462295
  WF centre and spread    7  ( -3.885463,  2.270768,  4.625144 )     5.41892911
  WF centre and spread    8  ( -5.039904,  5.099271,  5.073401 )     4.43531642
  Sum of centres and spreads (-27.525611, 29.270178, 27.105005 )    38.60877517
 
      6    -0.132E+01     1.6457241240       38.6087615059       0.09  <-- CONV
        O_D=      2.3471745 O_OD=     19.0531650 O_TOT=     38.6087615 <-- SPRD
 Delta: O_D= -0.7881397E-01 O_OD= -0.1236994E+01 O_TOT= -0.1315808E+01 <-- DLTA
 ------------------------------------------------------------------------------
 Cycle:      7
  WF centre and spread    1  ( -2.870274,  3.176559,  4.494716 )     5.05201646
  WF centre and spread    2  ( -2.943858,  3.044458,  1.864940 )     6.51474323
  WF centre and spread    3  ( -0.962200,  1.215549,  0.660507 )     2.67727006
  WF centre and spread    4  ( -3.003934,  4.932082,  3.276597 )     4.22321605
  WF centre and spread    5  ( -3.943173,  6.404336,  3.970166 )     5.14924361
  WF centre and spread    6  ( -4.925469,  3.197535,  3.155795 )     2.78061899
  WF centre and spread    7  ( -3.900942,  2.251323,  4.619603 )     4.90228717
  WF centre and spread    8  ( -5.035305,  5.086556,  5.066556 )     3.89580602
  Sum of centres and spreads (-27.585155, 29.308399, 27.108880 )    35.19520160
 
      7    -0.341E+01     1.5663993097       35.1951879144       0.11  <-- CONV
        O_D=      2.0778231 O_OD=     15.9089428 O_TOT=     35.1951879 <-- SPRD
 Delta: O_D= -0.2693514E+00 O_OD= -0.3144222E+01 O_TOT= -0.3413574E+01 <-- DLTA
 ------------------------------------------------------------------------------
 Cycle:      8
  WF centre and spread    1  ( -2.874909,  3.185477,  4.536999 )     4.86499607
  WF centre and spread    2  ( -2.974051,  3.089528,  1.853715 )     6.45050530
  WF centre and spread    3  ( -0.970120,  1.220562,  0.661759 )     2.55328089
  WF centre and spread    4  ( -3.003353,  4.921043,  3.271761 )     3.97636808
  WF centre and spread    5  ( -3.955428,  6.410334,  3.971014 )     4.99479632
  WF centre and spread    6  ( -4.922125,  3.196215,  3.157613 )     2.72821153
  WF centre and spread    7  ( -3.913047,  2.227457,  4.617315 )     4.67872831
  WF centre and spread    8  ( -5.029538,  5.073144,  5.061342 )     3.69133861
  Sum of centres and spreads (-27.642570, 29.323762, 27.131517 )    33.93822513
 
      8    -0.126E+01     0.9939518662       33.9382114165       0.12  <-- CONV
        O_D=      1.8710095 O_OD=     14.8587799 O_TOT=     33.9382114 <-- SPRD
 Delta: O_D= -0.2068136E+00 O_OD= -0.1050163E+01 O_TOT= -0.1256976E+01 <-- DLTA
 ------------------------------------------------------------------------------
 Cycle:      9
  WF centre and spread    1  ( -2.877163,  3.212664,  4.588152 )     4.69756449
  WF centre and spread    2  ( -3.036196,  3.177645,  1.850687 )     6.52052830
  WF centre and spread    3  ( -0.983673,  1.231307,  0.666966 )     2.46061624
  WF centre and spread    4  ( -3.000579,  4.906587,  3.263628 )     3.74799942
  WF centre and spread    5  ( -3.973713,  6.424777,  3.973387 )     4.87982901
  WF centre and spread    6  ( -4.921661,  3.195179,  3.161010 )     2.70848395
  WF centre and spread    7  ( -3.931261,  2.191513,  4.623260 )     4.46792633
  WF centre and spread    8  ( -5.023561,  5.057723,  5.055301 )     3.52774355
  Sum of centres and spreads (-27.747808, 29.397395, 27.182390 )    33.01069130
 
      9    -0.928E+00     0.7457604112       33.0106775278       0.14  <-- CONV
        O_D=      1.8700232 O_OD=     13.9322324 O_TOT=     33.0106775 <-- SPRD
 Delta: O_D= -0.9863644E-03 O_OD= -0.9265475E+00 O_TOT= -0.9275339E+00 <-- DLTA
 ------------------------------------------------------------------------------
 Cycle:     10
  WF centre and spread    1  ( -2.876078,  3.236515,  4.653636 )     4.55320267
  WF centre and spread    2  ( -3.112266,  3.306448,  1.855340 )     6.62341506
  WF centre and spread    3  ( -1.001984,  1.249485,  0.676872 )     2.41442520
  WF centre and spread    4  ( -2.999072,  4.892201,  3.251659 )     3.56432241
  WF centre and spread    5  ( -3.997602,  6.446782,  3.976717 )     4.75309986
  WF centre and spread    6  ( -4.925286,  3.194767,  3.165118 )     2.70326938
  WF centre and spread    7  ( -3.955241,  2.140656,  4.638696 )     4.25362832
  WF centre and spread    8  ( -5.017613,  5.041883,  5.048155 )     3.39902730
  Sum of centres and spreads (-27.885141, 29.508738, 27.266192 )    32.26439020
 
     10    -0.746E+00     0.7654464288       32.2643763366       0.16  <-- CONV
        O_D=      1.8459889 O_OD=     13.2099655 O_TOT=     32.2643763 <-- SPRD
 Delta: O_D= -0.2403429E-01 O_OD= -0.7222669E+00 O_TOT= -0.7463012E+00 <-- DLTA
 ------------------------------------------------------------------------------
 Cycle:     11
  WF centre and spread    1  ( -2.884044,  3.249652,  4.707781 )     4.44382512
  WF centre and spread    2  ( -3.203124,  3.433804,  1.833767 )     6.64842190
  WF centre and spread    3  ( -1.022116,  1.274227,  0.691144 )     2.41152547
  WF centre and spread    4  ( -3.002164,  4.884338,  3.240465 )     3.40433056
  WF centre and spread    5  ( -4.023990,  6.466500,  3.977452 )     4.66522729
  WF centre and spread    6  ( -4.931418,  3.194840,  3.167910 )     2.69744626
  WF centre and spread    7  ( -3.990217,  2.082947,  4.650581 )     4.06733110
  WF centre and spread    8  ( -5.013411,  5.030338,  5.042192 )     3.27058964
  Sum of centres and spreads (-28.070483, 29.616645, 27.311294 )    31.60869735
 
     11    -0.656E+00     0.7457369377       31.6086833807       0.18  <-- CONV
        O_D=      1.8654746 O_OD=     12.5347868 O_TOT=     31.6086834 <-- SPRD
 Delta: O_D=  0.1948568E-01 O_OD= -0.6751786E+00 O_TOT= -0.6556930E+00 <-- DLTA
 ------------------------------------------------------------------------------
 Cycle:     12
  WF centre and spread    1  ( -2.895174,  3.252768,  4.753144 )     4.31336060
  WF centre and spread    2  ( -3.284391,  3.554768,  1.791837 )     6.42030899
  WF centre and spread    3  ( -1.043945,  1.309728,  0.711240 )     2.46308677
  WF centre and spread    4  ( -3.009702,  4.884097,  3.230395 )     3.28635328
  WF centre and spread    5  ( -4.055237,  6.483284,  3.971979 )     4.65400167
  WF centre and spread    6  ( -4.939760,  3.194784,  3.169926 )     2.69734219
  WF centre and spread    7  ( -4.034097,  2.025684,  4.654670 )     3.93646135
  WF centre and spread    8  ( -5.007703,  5.020959,  5.035546 )     3.13589978
  Sum of centres and spreads (-28.270009, 29.726072, 27.318738 )    30.90681463
 
     12    -0.702E+00     0.7674083925       30.9068005709       0.19  <-- CONV
        O_D=      1.6938956 O_OD=     12.0044830 O_TOT=     30.9068006 <-- SPRD
 Delta: O_D= -0.1715790E+00 O_OD= -0.5303038E+00 O_TOT= -0.7018828E+00 <-- DLTA
 ------------------------------------------------------------------------------
 Cycle:     13
  WF centre and spread    1  ( -2.910023,  3.248146,  4.752522 )     4.12046971
  WF centre and spread    2  ( -3.329253,  3.594527,  1.777118 )     6.20656430
  WF centre and spread    3  ( -1.047245,  1.318574,  0.711829 )     2.43762008
  WF centre and spread    4  ( -3.014949,  4.888103,  3.228446 )     3.21212349
  WF centre and spread    5  ( -4.070257,  6.484405,  3.966761 )     4.56868205
  WF centre and spread    6  ( -4.940377,  3.193524,  3.168439 )     2.66937152
  WF centre and spread    7  ( -4.060656,  2.023997,  4.646162 )     3.75034800
  WF centre and spread    8  ( -5.006705,  5.018561,  5.034425 )     3.06917533
  Sum of centres and spreads (-28.379464, 29.769836, 27.285703 )    30.03435447
 
     13    -0.872E+00     0.7947145790       30.0343403803       0.20  <-- CONV
        O_D=      1.5819216 O_OD=     11.2439968 O_TOT=     30.0343404 <-- SPRD
 Delta: O_D= -0.1119739E+00 O_OD= -0.7604863E+00 O_TOT= -0.8724602E+00 <-- DLTA
 ------------------------------------------------------------------------------
 Cycle:     14
  WF centre and spread    1  ( -2.945352,  3.238021,  4.758057 )     3.98152916
  WF centre and spread    2  ( -3.397852,  3.638572,  1.740575 )     5.95837886
  WF centre and spread    3  ( -1.056270,  1.336511,  0.711682 )     2.46697429
  WF centre and spread    4  ( -3.030312,  4.895867,  3.222573 )     3.18601734
  WF centre and spread    5  ( -4.096417,  6.478870,  3.957589 )     4.51669893
  WF centre and spread    6  ( -4.942860,  3.190861,  3.165524 )     2.64840676
  WF centre and spread    7  ( -4.108956,  2.002534,  4.626958 )     3.58217911
  WF centre and spread    8  ( -5.004031,  5.013835,  5.030831 )     3.04205496
  Sum of centres and spreads (-28.582051, 29.795071, 27.213787 )    29.38223943
 
     14    -0.652E+00     0.6272208540       29.3822252984       0.22  <-- CONV
        O_D=      1.4849185 O_OD=     10.6888848 O_TOT=     29.3822253 <-- SPRD
 Delta: O_D= -0.9700311E-01 O_OD= -0.5551120E+00 O_TOT= -0.6521151E+00 <-- DLTA
 ------------------------------------------------------------------------------
 Cycle:     15
  WF centre and spread    1  ( -2.971942,  3.221850,  4.784929 )     3.83325868
  WF centre and spread    2  ( -3.466899,  3.682977,  1.722301 )     5.71644776
  WF centre and spread    3  ( -1.067559,  1.360396,  0.712448 )     2.53295063
  WF centre and spread    4  ( -3.052025,  4.905380,  3.217362 )     3.17200473
  WF centre and spread    5  ( -4.123066,  6.467216,  3.951611 )     4.52081284
  WF centre and spread    6  ( -4.947760,  3.187286,  3.162233 )     2.63459959
  WF centre and spread    7  ( -4.154017,  1.975266,  4.619492 )     3.47766756
  WF centre and spread    8  ( -4.999299,  5.008369,  5.025765 )     3.02762299
  Sum of centres and spreads (-28.782566, 29.808740, 27.196142 )    28.91536480
 
     15    -0.467E+00     0.7042099150       28.9153506060       0.23  <-- CONV
        O_D=      1.3787906 O_OD=     10.3281380 O_TOT=     28.9153506 <-- SPRD
 Delta: O_D= -0.1061279E+00 O_OD= -0.3607468E+00 O_TOT= -0.4668747E+00 <-- DLTA
 ------------------------------------------------------------------------------
 Cycle:     16
  WF centre and spread    1  ( -2.982114,  3.214335,  4.805803 )     3.83345064
  WF centre and spread    2  ( -3.502380,  3.702855,  1.718020 )     5.49638923
  WF centre and spread    3  ( -1.072701,  1.375753,  0.714896 )     2.57772965
  WF centre and spread    4  ( -3.063663,  4.911179,  3.216310 )     3.16733314
  WF centre and spread    5  ( -4.134558,  6.460015,  3.948891 )     4.52470755
  WF centre and spread    6  ( -4.951287,  3.185294,  3.160918 )     2.62592134
  WF centre and spread    7  ( -4.177924,  1.961140,  4.617314 )     3.42870008
  WF centre and spread    8  ( -4.995776,  5.005237,  5.022948 )     3.00985411
  Sum of centres and spreads (-28.880402, 29.815808, 27.205100 )    28.66408573
 
     16    -0.251E+00     0.7355541649       28.6640715113       0.24  <-- CONV
        O_D=      1.2486435 O_OD=     10.2070060 O_TOT=     28.6640715 <-- SPRD
 Delta: O_D= -0.1301472E+00 O_OD= -0.1211319E+00 O_TOT= -0.2512791E+00 <-- DLTA
 ------------------------------------------------------------------------------
 Cycle:     17
  WF centre and spread    1  ( -2.992371,  3.207195,  4.828887 )     3.79308037
  WF centre and spread    2  ( -3.535681,  3.712720,  1.715752 )     5.26656303
  WF centre and spread    3  ( -1.077053,  1.391773,  0.718138 )     2.62117083
  WF centre and spread    4  ( -3.074667,  4.916239,  3.216027 )     3.15620739
  WF centre and spread    5  ( -4.146062,  6.451739,  3.945743 )     4.52010508
  WF centre and spread    6  ( -4.954952,  3.183429,  3.160232 )     2.61697629
  WF centre and spread    7  ( -4.205051,  1.946272,  4.615447 )     3.37545808
  WF centre and spread    8  ( -4.991770,  5.001699,  5.020143 )     2.97932864
  Sum of centres and spreads (-28.977608, 29.811065, 27.220367 )    28.32888970
 
     17    -0.335E+00     0.7196980460       28.3288754500       0.26  <-- CONV
        O_D=      1.0866053 O_OD=     10.0338481 O_TOT=     28.3288754 <-- SPRD
 Delta: O_D= -0.1620381E+00 O_OD= -0.1731579E+00 O_TOT= -0.3351961E+00 <-- DLTA
 ------------------------------------------------------------------------------
 Cycle:     18
  WF centre and spread    1  ( -3.006244,  3.200132,  4.853020 )     3.75364575
  WF centre and spread    2  ( -3.561052,  3.722751,  1.713213 )     5.07970803
  WF centre and spread    3  ( -1.080340,  1.407933,  0.721734 )     2.65627044
  WF centre and spread    4  ( -3.084772,  4.920196,  3.215530 )     3.13582835
  WF centre and spread    5  ( -4.159756,  6.442378,  3.942572 )     4.51193879
  WF centre and spread    6  ( -4.958380,  3.181755,  3.160087 )     2.61167800
  WF centre and spread    7  ( -4.235047,  1.932726,  4.613859 )     3.33651314
  WF centre and spread    8  ( -4.987229,  4.997840,  5.016885 )     2.95087388
  Sum of centres and spreads (-29.072821, 29.805709, 27.236900 )    28.03645638
 
     18    -0.292E+00     0.6870639243       28.0364420976       0.27  <-- CONV
        O_D=      1.0084110 O_OD=      9.8196091 O_TOT=     28.0364421 <-- SPRD
 Delta: O_D= -0.7819429E-01 O_OD= -0.2142391E+00 O_TOT= -0.2924334E+00 <-- DLTA
 ------------------------------------------------------------------------------
 Cycle:     19
  WF centre and spread    1  ( -3.011365,  3.199164,  4.860699 )     3.66461696
  WF centre and spread    2  ( -3.553580,  3.734817,  1.707638 )     4.92097523
  WF centre and spread    3  ( -1.079319,  1.413862,  0.722367 )     2.60856514
  WF centre and spread    4  ( -3.084988,  4.920931,  3.213219 )     3.06741330
  WF centre and spread    5  ( -4.162305,  6.442657,  3.941017 )     4.44409530
  WF centre and spread    6  ( -4.958280,  3.181423,  3.160882 )     2.60634818
  WF centre and spread    7  ( -4.238308,  1.931882,  4.610011 )     3.24319740
  WF centre and spread    8  ( -4.985609,  4.996257,  5.015859 )     2.92487540
  Sum of centres and spreads (-29.073754, 29.820993, 27.231691 )    27.48008690
 
     19    -0.556E+00     0.6909807294       27.4800726159       0.29  <-- CONV
        O_D=      0.9749741 O_OD=      9.2966765 O_TOT=     27.4800726 <-- SPRD
 Delta: O_D= -0.3343698E-01 O_OD= -0.5229325E+00 O_TOT= -0.5563695E+00 <-- DLTA
 ------------------------------------------------------------------------------
 Cycle:     20
  WF centre and spread    1  ( -3.019636,  3.198883,  4.868831 )     3.61591571
  WF centre and spread    2  ( -3.553772,  3.732391,  1.714514 )     4.83933597
  WF centre and spread    3  ( -1.078611,  1.423283,  0.723736 )     2.58546233
  WF centre and spread    4  ( -3.086864,  4.921963,  3.210981 )     3.02796248
  WF centre and spread    5  ( -4.169335,  6.438605,  3.940462 )     4.40828439
  WF centre and spread    6  ( -4.958513,  3.181157,  3.162191 )     2.60773424
  WF centre and spread    7  ( -4.250679,  1.929788,  4.609026 )     3.23296316
  WF centre and spread    8  ( -4.983132,  4.994048,  5.014210 )     2.90211171
  Sum of centres and spreads (-29.100542, 29.820119, 27.243950 )    27.21976999
 
     20    -0.260E+00     0.4203742712       27.2197556985       0.30  <-- CONV
        O_D=      0.9688832 O_OD=      9.0424505 O_TOT=     27.2197557 <-- SPRD
 Delta: O_D= -0.6090854E-02 O_OD= -0.2542261E+00 O_TOT= -0.2603169E+00 <-- DLTA
 ------------------------------------------------------------------------------
 Cycle:     21
  WF centre and spread    1  ( -3.059280,  3.187598,  4.898947 )     3.60238647
  WF centre and spread    2  ( -3.579090,  3.737742,  1.711689 )     4.64187108
  WF centre and spread    3  ( -1.081648,  1.458679,  0.726493 )     2.59440687
  WF centre and spread    4  ( -3.102455,  4.927703,  3.202449 )     2.99706710
  WF centre and spread    5  ( -4.207499,  6.416670,  3.929052 )     4.31636765
  WF centre and spread    6  ( -4.960578,  3.180439,  3.166235 )     2.62896692
  WF centre and spread    7  ( -4.311269,  1.914364,  4.591360 )     3.25659550
  WF centre and spread    8  ( -4.975640,  4.988164,  5.008489 )     2.86981372
  Sum of centres and spreads (-29.277459, 29.811359, 27.234715 )    26.90747531
 
     21    -0.312E+00     0.3672230230       26.9074609811       0.31  <-- CONV
        O_D=      1.1059773 O_OD=      8.5930617 O_TOT=     26.9074610 <-- SPRD
 Delta: O_D=  0.1370940E+00 O_OD= -0.4493888E+00 O_TOT= -0.3122947E+00 <-- DLTA
 ------------------------------------------------------------------------------
 Cycle:     22
  WF centre and spread    1  ( -3.070562,  3.186025,  4.901333 )     3.46768748
  WF centre and spread    2  ( -3.595476,  3.735288,  1.717326 )     4.41561082
  WF centre and spread    3  ( -1.084649,  1.464584,  0.726277 )     2.56762184
  WF centre and spread    4  ( -3.110051,  4.929451,  3.201419 )     2.95540376
  WF centre and spread    5  ( -4.226296,  6.412142,  3.928060 )     4.21424938
  WF centre and spread    6  ( -4.961233,  3.180484,  3.166018 )     2.62352034
  WF centre and spread    7  ( -4.327959,  1.910237,  4.590377 )     3.11132006
  WF centre and spread    8  ( -4.975729,  4.987759,  5.007970 )     2.85160378
  Sum of centres and spreads (-29.351954, 29.805970, 27.238778 )    26.20701747
 
     22    -0.700E+00     0.8325612440       26.2070031120       0.33  <-- CONV
        O_D=      0.9063240 O_OD=      8.0922571 O_TOT=     26.2070031 <-- SPRD
 Delta: O_D= -0.1996532E+00 O_OD= -0.5008046E+00 O_TOT= -0.7004579E+00 <-- DLTA
 ------------------------------------------------------------------------------
 Cycle:     23
  WF centre and spread    1  ( -3.110881,  3.182536,  4.917043 )     3.33090392
  WF centre and spread    2  ( -3.617847,  3.734176,  1.710553 )     4.24701110
  WF centre and spread    3  ( -1.092413,  1.487139,  0.726856 )     2.56049259
  WF centre and spread    4  ( -3.133477,  4.938006,  3.197757 )     2.90235077
  WF centre and spread    5  ( -4.271282,  6.403577,  3.920845 )     4.03143430
  WF centre and spread    6  ( -4.963167,  3.180618,  3.165730 )     2.63037442
  WF centre and spread    7  ( -4.375779,  1.906497,  4.579003 )     3.00031036
  WF centre and spread    8  ( -4.975719,  4.986511,  5.005811 )     2.83121139
  Sum of centres and spreads (-29.540566, 29.819061, 27.223597 )    25.53408885
 
     23    -0.673E+00     0.5864704649       25.5340744469       0.34  <-- CONV
        O_D=      0.8825884 O_OD=      7.4430641 O_TOT=     25.5340744 <-- SPRD
 Delta: O_D= -0.2373563E-01 O_OD= -0.6491930E+00 O_TOT= -0.6729287E+00 <-- DLTA
 ------------------------------------------------------------------------------
 Cycle:     24
  WF centre and spread    1  ( -3.139146,  3.177601,  4.923640 )     3.27836074
  WF centre and spread    2  ( -3.639432,  3.734839,  1.707267 )     4.15261598
  WF centre and spread    3  ( -1.096008,  1.511550,  0.728429 )     2.58841917
  WF centre and spread    4  ( -3.151823,  4.947579,  3.195332 )     2.89520507
  WF centre and spread    5  ( -4.314447,  6.392497,  3.907810 )     3.95719388
  WF centre and spread    6  ( -4.965000,  3.180723,  3.165814 )     2.64538993
  WF centre and spread    7  ( -4.419052,  1.903749,  4.566528 )     3.03513105
  WF centre and spread    8  ( -4.975381,  4.985180,  5.002913 )     2.82279682
  Sum of centres and spreads (-29.700288, 29.833718, 27.197732 )    25.37511264
 
     24    -0.159E+00     0.8910484552       25.3750981972       0.35  <-- CONV
        O_D=      0.7967320 O_OD=      7.3699442 O_TOT=     25.3750982 <-- SPRD
 Delta: O_D= -0.8585637E-01 O_OD= -0.7311988E-01 O_TOT= -0.1589762E+00 <-- DLTA
 ------------------------------------------------------------------------------
 Cycle:     25
  WF centre and spread    1  ( -3.146991,  3.176338,  4.929773 )     3.24565203
  WF centre and spread    2  ( -3.645034,  3.734366,  1.713100 )     4.07105744
  WF centre and spread    3  ( -1.095812,  1.522543,  0.729976 )     2.60350177
  WF centre and spread    4  ( -3.157895,  4.951464,  3.195410 )     2.89901954
  WF centre and spread    5  ( -4.329649,  6.387296,  3.905158 )     3.90732519
  WF centre and spread    6  ( -4.965721,  3.180687,  3.165951 )     2.65215514
  WF centre and spread    7  ( -4.433292,  1.901782,  4.566481 )     3.05351376
  WF centre and spread    8  ( -4.975074,  4.984473,  5.001256 )     2.81911224
  Sum of centres and spreads (-29.749469, 29.838948, 27.207105 )    25.25133709
 
     25    -0.124E+00     1.1270338231       25.2513226314       0.37  <-- CONV
        O_D=      0.6956178 O_OD=      7.3472829 O_TOT=     25.2513226 <-- SPRD
 Delta: O_D= -0.1011143E+00 O_OD= -0.2266131E-01 O_TOT= -0.1237756E+00 <-- DLTA
 ------------------------------------------------------------------------------
 Cycle:     26
  WF centre and spread    1  ( -3.153005,  3.176182,  4.935403 )     3.21717188
  WF centre and spread    2  ( -3.647518,  3.733097,  1.720373 )     3.95688286
  WF centre and spread    3  ( -1.094452,  1.532874,  0.731937 )     2.61170827
  WF centre and spread    4  ( -3.162376,  4.954605,  3.195058 )     2.89618673
  WF centre and spread    5  ( -4.342567,  6.382594,  3.902536 )     3.83950989
  WF centre and spread    6  ( -4.966244,  3.180622,  3.166180 )     2.65689043
  WF centre and spread    7  ( -4.444620,  1.899485,  4.566516 )     3.03406620
  WF centre and spread    8  ( -4.974598,  4.983639,  4.999431 )     2.81256653
  Sum of centres and spreads (-29.785381, 29.843098, 27.217434 )    25.02498279
 
     26    -0.226E+00     1.0827570712       25.0249683128       0.38  <-- CONV
        O_D=      0.6191816 O_OD=      7.1973647 O_TOT=     25.0249683 <-- SPRD
 Delta: O_D= -0.7643617E-01 O_OD= -0.1499182E+00 O_TOT= -0.2263543E+00 <-- DLTA
 ------------------------------------------------------------------------------
 Cycle:     27
  WF centre and spread    1  ( -3.157817,  3.176469,  4.939023 )     3.19381922
  WF centre and spread    2  ( -3.647208,  3.731642,  1.725731 )     3.84743316
  WF centre and spread    3  ( -1.092246,  1.542879,  0.733881 )     2.61723375
  WF centre and spread    4  ( -3.165758,  4.957009,  3.193501 )     2.88722197
  WF centre and spread    5  ( -4.353975,  6.378161,  3.897938 )     3.78580291
  WF centre and spread    6  ( -4.966617,  3.180558,  3.166515 )     2.66060755
  WF centre and spread    7  ( -4.453770,  1.896933,  4.564372 )     2.99575506
  WF centre and spread    8  ( -4.973933,  4.982639,  4.997502 )     2.80354437
  Sum of centres and spreads (-29.811324, 29.846290, 27.218464 )    24.79141798
 
     27    -0.234E+00     1.0128715395       24.7914034974       0.40  <-- CONV
        O_D=      0.5982628 O_OD=      6.9847187 O_TOT=     24.7914035 <-- SPRD
 Delta: O_D= -0.2091876E-01 O_OD= -0.2126461E+00 O_TOT= -0.2335648E+00 <-- DLTA
 ------------------------------------------------------------------------------
 Cycle:     28
  WF centre and spread    1  ( -3.156821,  3.177809,  4.931912 )     2.99554902
  WF centre and spread    2  ( -3.631154,  3.735590,  1.713738 )     3.54074288
  WF centre and spread    3  ( -1.088100,  1.550721,  0.733768 )     2.54305231
  WF centre and spread    4  ( -3.165003,  4.956466,  3.187366 )     2.75681149
  WF centre and spread    5  ( -4.353802,  6.377659,  3.881285 )     3.54886686
  WF centre and spread    6  ( -4.966276,  3.180825,  3.167722 )     2.65930247
  WF centre and spread    7  ( -4.450493,  1.894571,  4.552456 )     2.68960047
  WF centre and spread    8  ( -4.972090,  4.980972,  4.996092 )     2.78479600
  Sum of centres and spreads (-29.783739, 29.854613, 27.164339 )    23.51872151
 
     28    -0.127E+01     1.0251640722       23.5187070564       0.41  <-- CONV
        O_D=      0.5267908 O_OD=      5.7834943 O_TOT=     23.5187071 <-- SPRD
 Delta: O_D= -0.7147203E-01 O_OD= -0.1201224E+01 O_TOT= -0.1272696E+01 <-- DLTA
 ------------------------------------------------------------------------------
 Cycle:     29
  WF centre and spread    1  ( -3.157801,  3.177277,  4.932090 )     2.91730776
  WF centre and spread    2  ( -3.626945,  3.733125,  1.716659 )     3.41373096
  WF centre and spread    3  ( -1.084951,  1.556174,  0.734982 )     2.52983121
  WF centre and spread    4  ( -3.165559,  4.956023,  3.186332 )     2.73241205
  WF centre and spread    5  ( -4.358076,  6.373779,  3.877354 )     3.51297012
  WF centre and spread    6  ( -4.966237,  3.180959,  3.168453 )     2.66000546
  WF centre and spread    7  ( -4.452217,  1.892367,  4.551412 )     2.65525642
  WF centre and spread    8  ( -4.971176,  4.980016,  4.995238 )     2.77824674
  Sum of centres and spreads (-29.782963, 29.849721, 27.162519 )    23.19976073
 
     29    -0.319E+00     0.7814800929       23.1997462713       0.43  <-- CONV
        O_D=      0.3589903 O_OD=      5.6323340 O_TOT=     23.1997463 <-- SPRD
 Delta: O_D= -0.1678005E+00 O_OD= -0.1511603E+00 O_TOT= -0.3189608E+00 <-- DLTA
 ------------------------------------------------------------------------------
 Cycle:     30
  WF centre and spread    1  ( -3.160495,  3.175906,  4.934842 )     2.89262772
  WF centre and spread    2  ( -3.626082,  3.729331,  1.722559 )     3.37563575
  WF centre and spread    3  ( -1.082501,  1.562194,  0.736148 )     2.52018093
  WF centre and spread    4  ( -3.167133,  4.956069,  3.185815 )     2.70927148
  WF centre and spread    5  ( -4.365186,  6.368148,  3.876112 )     3.47528337
  WF centre and spread    6  ( -4.966367,  3.181058,  3.169015 )     2.66232021
  WF centre and spread    7  ( -4.456584,  1.890233,  4.551588 )     2.62012013
  WF centre and spread    8  ( -4.970556,  4.979278,  4.994516 )     2.77500679
  Sum of centres and spreads (-29.794905, 29.842216, 27.170593 )    23.03044638
 
     30    -0.169E+00     0.4397109855       23.0304319280       0.44  <-- CONV
        O_D=      0.3401581 O_OD=      5.4818518 O_TOT=     23.0304319 <-- SPRD
 Delta: O_D= -0.1883222E-01 O_OD= -0.1504821E+00 O_TOT= -0.1693143E+00 <-- DLTA
 ------------------------------------------------------------------------------
 Cycle:     31
  WF centre and spread    1  ( -3.163059,  3.175249,  4.937010 )     2.87933791
  WF centre and spread    2  ( -3.624514,  3.726172,  1.726634 )     3.34724274
  WF centre and spread    3  ( -1.079163,  1.570043,  0.737615 )     2.51992292
  WF centre and spread    4  ( -3.168657,  4.956789,  3.184978 )     2.69422806
  WF centre and spread    5  ( -4.372771,  6.362850,  3.872038 )     3.46160837
  WF centre and spread    6  ( -4.966595,  3.181167,  3.169565 )     2.66512458
  WF centre and spread    7  ( -4.461370,  1.888482,  4.550340 )     2.60444100
  WF centre and spread    8  ( -4.969972,  4.978479,  4.993616 )     2.77170124
  Sum of centres and spreads (-29.806100, 29.839232, 27.171796 )    22.94360684
 
     31    -0.868E-01     0.3051204755       22.9435923786       0.46  <-- CONV
        O_D=      0.3227275 O_OD=      5.4124428 O_TOT=     22.9435924 <-- SPRD
 Delta: O_D= -0.1743055E-01 O_OD= -0.6940900E-01 O_TOT= -0.8683955E-01 <-- DLTA
 ------------------------------------------------------------------------------
 Cycle:     32
  WF centre and spread    1  ( -3.166137,  3.175621,  4.938895 )     2.86906596
  WF centre and spread    2  ( -3.620331,  3.722857,  1.728784 )     3.32327759
  WF centre and spread    3  ( -1.072956,  1.583749,  0.740407 )     2.53035099
  WF centre and spread    4  ( -3.170768,  4.958506,  3.183571 )     2.68017936
  WF centre and spread    5  ( -4.383307,  6.356079,  3.858906 )     3.44707912
  WF centre and spread    6  ( -4.967012,  3.181296,  3.170347 )     2.67034988
  WF centre and spread    7  ( -4.468302,  1.886279,  4.547178 )     2.57854019
  WF centre and spread    8  ( -4.969171,  4.977222,  4.992019 )     2.76659870
  Sum of centres and spreads (-29.817984, 29.841609, 27.160108 )    22.86544179
 
     32    -0.782E-01     0.2453427148       22.8654273343       0.47  <-- CONV
        O_D=      0.3205658 O_OD=      5.3364395 O_TOT=     22.8654273 <-- SPRD
 Delta: O_D= -0.2161707E-02 O_OD= -0.7600334E-01 O_TOT= -0.7816504E-01 <-- DLTA
 ------------------------------------------------------------------------------
 Cycle:     33
  WF centre and spread    1  ( -3.171134,  3.174684,  4.945404 )     2.81433496
  WF centre and spread    2  ( -3.621598,  3.720055,  1.737520 )     3.28989536
  WF centre and spread    3  ( -1.058751,  1.612466,  0.747651 )     2.58539199
  WF centre and spread    4  ( -3.174302,  4.961423,  3.181389 )     2.70591141
  WF centre and spread    5  ( -4.475157,  6.343149,  3.835914 )     3.83300561
  WF centre and spread    6  ( -4.967914,  3.181478,  3.171838 )     2.68266798
  WF centre and spread    7  ( -4.481227,  1.880011,  4.542474 )     2.57074311
  WF centre and spread    8  ( -4.967712,  4.974669,  4.988370 )     2.75750010
  Sum of centres and spreads (-29.917795, 29.847936, 27.150560 )    23.23945052
 
     33     0.374E+00     0.3022281211       23.2394360371       0.49  <-- CONV
        O_D=      0.7813725 O_OD=      5.2496415 O_TOT=     23.2394360 <-- SPRD
 Delta: O_D=  0.4608067E+00 O_OD= -0.8679798E-01 O_TOT=  0.3740087E+00 <-- DLTA
 ------------------------------------------------------------------------------
 Cycle:     34
  WF centre and spread    1  ( -3.171140,  3.174707,  4.945306 )     2.81915405
  WF centre and spread    2  ( -3.624548,  3.719255,  1.735883 )     3.33081873
  WF centre and spread    3  ( -1.058787,  1.612553,  0.747690 )     2.58646136
  WF centre and spread    4  ( -3.174320,  4.961429,  3.181387 )     2.70657148
  WF centre and spread    5  ( -4.427554,  6.343763,  3.837767 )     3.47023527
  WF centre and spread    6  ( -4.967915,  3.181479,  3.171836 )     2.68266458
  WF centre and spread    7  ( -4.481232,  1.880007,  4.542479 )     2.57038524
  WF centre and spread    8  ( -4.967712,  4.974666,  4.988367 )     2.75748288
  Sum of centres and spreads (-29.873207, 29.847860, 27.150715 )    22.92377359
 
     34    -0.316E+00    14.9515809943       22.9237591234       0.50  <-- CONV
        O_D=      0.4588349 O_OD=      5.2565022 O_TOT=     22.9237591 <-- SPRD
 Delta: O_D= -0.3225376E+00 O_OD=  0.6860696E-02 O_TOT= -0.3156769E+00 <-- DLTA
 ------------------------------------------------------------------------------
 Cycle:     35
  WF centre and spread    1  ( -3.171106,  3.174726,  4.945309 )     2.81973904
  WF centre and spread    2  ( -3.623823,  3.718734,  1.736538 )     3.31545118
  WF centre and spread    3  ( -1.058695,  1.612737,  0.747746 )     2.58627755
  WF centre and spread    4  ( -3.174338,  4.961449,  3.181385 )     2.70611361
  WF centre and spread    5  ( -4.423827,  6.343519,  3.838461 )     3.41566030
  WF centre and spread    6  ( -4.967917,  3.181481,  3.171837 )     2.68260690
  WF centre and spread    7  ( -4.481267,  1.879980,  4.542466 )     2.56813499
  WF centre and spread    8  ( -4.967711,  4.974659,  4.988348 )     2.75730000
  Sum of centres and spreads (-29.868685, 29.847285, 27.152092 )    22.85128356
 
     35    -0.725E-01     1.7029364534       22.8512690996       0.52  <-- CONV
        O_D=      0.3937049 O_OD=      5.2491422 O_TOT=     22.8512691 <-- SPRD
 Delta: O_D= -0.6512998E-01 O_OD= -0.7360039E-02 O_TOT= -0.7249002E-01 <-- DLTA
 ------------------------------------------------------------------------------
 Cycle:     36
  WF centre and spread    1  ( -3.170758,  3.174730,  4.945483 )     2.81782728
  WF centre and spread    2  ( -3.606815,  3.715092,  1.740928 )     3.28135668
  WF centre and spread    3  ( -1.058072,  1.613767,  0.748048 )     2.58403112
  WF centre and spread    4  ( -3.174403,  4.961561,  3.181361 )     2.70288802
  WF centre and spread    5  ( -4.408732,  6.341626,  3.841539 )     3.38421491
  WF centre and spread    6  ( -4.967926,  3.181487,  3.171845 )     2.68234280
  WF centre and spread    7  ( -4.481465,  1.879808,  4.542406 )     2.55702972
  WF centre and spread    8  ( -4.967707,  4.974622,  4.988233 )     2.75630047
  Sum of centres and spreads (-29.835880, 29.842694, 27.159841 )    22.76599100
 
     36    -0.853E-01     1.2601601072       22.7659765419       0.53  <-- CONV
        O_D=      0.3492548 O_OD=      5.2082998 O_TOT=     22.7659765 <-- SPRD
 Delta: O_D= -0.4445016E-01 O_OD= -0.4084240E-01 O_TOT= -0.8529256E-01 <-- DLTA
 ------------------------------------------------------------------------------
 Cycle:     37
  WF centre and spread    1  ( -3.170727,  3.174724,  4.945538 )     2.81694395
  WF centre and spread    2  ( -3.604835,  3.714856,  1.741449 )     3.26359154
  WF centre and spread    3  ( -1.057926,  1.614021,  0.748114 )     2.58356706
  WF centre and spread    4  ( -3.174424,  4.961589,  3.181353 )     2.70204131
  WF centre and spread    5  ( -4.407791,  6.341197,  3.841633 )     3.38095436
  WF centre and spread    6  ( -4.967929,  3.181489,  3.171847 )     2.68231133
  WF centre and spread    7  ( -4.481525,  1.879757,  4.542389 )     2.55493976
  WF centre and spread    8  ( -4.967708,  4.974613,  4.988202 )     2.75608538
  Sum of centres and spreads (-29.832866, 29.842246, 27.160526 )    22.74043469
 
     37    -0.256E-01     1.0625452958       22.7404202376       0.54  <-- CONV
        O_D=      0.3309240 O_OD=      5.2010742 O_TOT=     22.7404202 <-- SPRD
 Delta: O_D= -0.1833075E-01 O_OD= -0.7225558E-02 O_TOT= -0.2555630E-01 <-- DLTA
 ------------------------------------------------------------------------------
 Cycle:     38
  WF centre and spread    1  ( -3.171172,  3.174567,  4.946099 )     2.80059681
  WF centre and spread    2  ( -3.619750,  3.717892,  1.743723 )     3.25832488
  WF centre and spread    3  ( -1.056712,  1.616313,  0.748680 )     2.58012194
  WF centre and spread    4  ( -3.174652,  4.961844,  3.181280 )     2.69378533
  WF centre and spread    5  ( -4.422201,  6.344705,  3.839508 )     3.36318285
  WF centre and spread    6  ( -4.967967,  3.181506,  3.171883 )     2.68237790
  WF centre and spread    7  ( -4.482193,  1.879215,  4.542191 )     2.54409138
  WF centre and spread    8  ( -4.967737,  4.974512,  4.987904 )     2.75452761
  Sum of centres and spreads (-29.862384, 29.850553, 27.161269 )    22.67700871
 
     38    -0.634E-01     0.4386589630       22.6769942412       0.56  <-- CONV
        O_D=      0.3226225 O_OD=      5.1459498 O_TOT=     22.6769942 <-- SPRD
 Delta: O_D= -0.8301560E-02 O_OD= -0.5512444E-01 O_TOT= -0.6342600E-01 <-- DLTA
 ------------------------------------------------------------------------------
 Cycle:     39
  WF centre and spread    1  ( -3.171175,  3.174522,  4.946190 )     2.79844152
  WF centre and spread    2  ( -3.620248,  3.717894,  1.743678 )     3.25319962
  WF centre and spread    3  ( -1.056459,  1.616748,  0.748804 )     2.57971465
  WF centre and spread    4  ( -3.174679,  4.961886,  3.181268 )     2.69288437
  WF centre and spread    5  ( -4.422659,  6.344559,  3.838797 )     3.36460316
  WF centre and spread    6  ( -4.967974,  3.181509,  3.171890 )     2.68242109
  WF centre and spread    7  ( -4.482309,  1.879115,  4.542159 )     2.54340475
  WF centre and spread    8  ( -4.967740,  4.974494,  4.987849 )     2.75429181
  Sum of centres and spreads (-29.863243, 29.850726, 27.160635 )    22.66896097
 
     39    -0.805E-02     0.6125062708       22.6689465002       0.57  <-- CONV
        O_D=      0.3209002 O_OD=      5.1396243 O_TOT=     22.6689465 <-- SPRD
 Delta: O_D= -0.1722285E-02 O_OD= -0.6325456E-02 O_TOT= -0.8047741E-02 <-- DLTA
 ------------------------------------------------------------------------------
 Cycle:     40
  WF centre and spread    1  ( -3.171081,  3.174482,  4.946210 )     2.79717812
  WF centre and spread    2  ( -3.615424,  3.716795,  1.742624 )     3.24738519
  WF centre and spread    3  ( -1.056314,  1.616961,  0.748879 )     2.57935726
  WF centre and spread    4  ( -3.174676,  4.961902,  3.181263 )     2.69262443
  WF centre and spread    5  ( -4.420453,  6.343345,  3.838135 )     3.35949410
  WF centre and spread    6  ( -4.967977,  3.181509,  3.171893 )     2.68243467
  WF centre and spread    7  ( -4.482353,  1.879074,  4.542149 )     2.54334349
  WF centre and spread    8  ( -4.967739,  4.974486,  4.987825 )     2.75418835
  Sum of centres and spreads (-29.856016, 29.848553, 27.158978 )    22.65600562
 
     40    -0.130E-01     0.5343115971       22.6559911561       0.58  <-- CONV
        O_D=      0.3126595 O_OD=      5.1349097 O_TOT=     22.6559912 <-- SPRD
 Delta: O_D= -0.8240692E-02 O_OD= -0.4714652E-02 O_TOT= -0.1295534E-01 <-- DLTA
 ------------------------------------------------------------------------------
 Cycle:     41
  WF centre and spread    1  ( -3.170882,  3.174388,  4.946276 )     2.79373188
  WF centre and spread    2  ( -3.608276,  3.714982,  1.741592 )     3.23485772
  WF centre and spread    3  ( -1.055949,  1.617503,  0.749068 )     2.57857038
  WF centre and spread    4  ( -3.174673,  4.961942,  3.181252 )     2.69190214
  WF centre and spread    5  ( -4.411554,  6.339354,  3.835949 )     3.36137601
  WF centre and spread    6  ( -4.967986,  3.181509,  3.171901 )     2.68247615
  WF centre and spread    7  ( -4.482469,  1.878968,  4.542121 )     2.54323344
  WF centre and spread    8  ( -4.967736,  4.974467,  4.987762 )     2.75392866
  Sum of centres and spreads (-29.839525, 29.843114, 27.155919 )    22.64007638
 
     41    -0.159E-01     0.6904469319       22.6400619260       0.60  <-- CONV
        O_D=      0.3064125 O_OD=      5.1252274 O_TOT=     22.6400619 <-- SPRD
 Delta: O_D= -0.6246988E-02 O_OD= -0.9682242E-02 O_TOT= -0.1592923E-01 <-- DLTA
 ------------------------------------------------------------------------------
 Cycle:     42
  WF centre and spread    1  ( -3.170906,  3.174340,  4.946479 )     2.78808878
  WF centre and spread    2  ( -3.608028,  3.715599,  1.743591 )     3.23913281
  WF centre and spread    3  ( -1.055395,  1.618418,  0.749363 )     2.57764981
  WF centre and spread    4  ( -3.174714,  4.962024,  3.181236 )     2.69066944
  WF centre and spread    5  ( -4.413348,  6.342150,  3.837910 )     3.35656651
  WF centre and spread    6  ( -4.968004,  3.181510,  3.171919 )     2.68260329
  WF centre and spread    7  ( -4.482719,  1.878779,  4.542038 )     2.54309583
  WF centre and spread    8  ( -4.967737,  4.974425,  4.987655 )     2.75354165
  Sum of centres and spreads (-29.840850, 29.847244, 27.160191 )    22.63134812
 
     42    -0.873E-02     0.3263450469       22.6313336671       0.61  <-- CONV
        O_D=      0.3078735 O_OD=      5.1150381 O_TOT=     22.6313337 <-- SPRD
 Delta: O_D=  0.1461048E-02 O_OD= -0.1018931E-01 O_TOT= -0.8728259E-02 <-- DLTA
 ------------------------------------------------------------------------------
 Cycle:     43
  WF centre and spread    1  ( -3.170913,  3.174334,  4.946487 )     2.78772938
  WF centre and spread    2  ( -3.607897,  3.715430,  1.743445 )     3.23450545
  WF centre and spread    3  ( -1.055367,  1.618469,  0.749378 )     2.57763126
  WF centre and spread    4  ( -3.174717,  4.962028,  3.181235 )     2.69060154
  WF centre and spread    5  ( -4.414272,  6.342121,  3.837831 )     3.35572613
  WF centre and spread    6  ( -4.968005,  3.181510,  3.171920 )     2.68261189
  WF centre and spread    7  ( -4.482736,  1.878768,  4.542033 )     2.54309402
  WF centre and spread    8  ( -4.967737,  4.974423,  4.987649 )     2.75352183
  Sum of centres and spreads (-29.841644, 29.847082, 27.159978 )    22.62542151
 
     43    -0.593E-02     0.6854831545       22.6254070480       0.63  <-- CONV
        O_D=      0.3025512 O_OD=      5.1144339 O_TOT=     22.6254070 <-- SPRD
 Delta: O_D= -0.5322373E-02 O_OD= -0.6042463E-03 O_TOT= -0.5926619E-02 <-- DLTA
 ------------------------------------------------------------------------------
 Cycle:     44
  WF centre and spread    1  ( -3.170996,  3.174240,  4.946610 )     2.78141700
  WF centre and spread    2  ( -3.611897,  3.714385,  1.742412 )     3.23484025
  WF centre and spread    3  ( -1.054948,  1.619220,  0.749609 )     2.57728822
  WF centre and spread    4  ( -3.174759,  4.962083,  3.181219 )     2.68946706
  WF centre and spread    5  ( -4.419711,  6.341603,  3.835477 )     3.35289480
  WF centre and spread    6  ( -4.968021,  3.181511,  3.171937 )     2.68273579
  WF centre and spread    7  ( -4.482974,  1.878604,  4.541953 )     2.54312336
  WF centre and spread    8  ( -4.967741,  4.974386,  4.987558 )     2.75322585
  Sum of centres and spreads (-29.851047, 29.846032, 27.156775 )    22.61499234
 
     44    -0.104E-01     0.2830573963       22.6149778814       0.64  <-- CONV
        O_D=      0.3016126 O_OD=      5.1049433 O_TOT=     22.6149779 <-- SPRD
 Delta: O_D= -0.9385926E-03 O_OD= -0.9490574E-02 O_TOT= -0.1042917E-01 <-- DLTA
 ------------------------------------------------------------------------------
 Cycle:     45
  WF centre and spread    1  ( -3.171005,  3.174179,  4.946731 )     2.77625847
  WF centre and spread    2  ( -3.611872,  3.714495,  1.742524 )     3.23922379
  WF centre and spread    3  ( -1.054558,  1.619868,  0.749821 )     2.57691509
  WF centre and spread    4  ( -3.174783,  4.962132,  3.181209 )     2.68861535
  WF centre and spread    5  ( -4.421055,  6.342173,  3.834949 )     3.35120547
  WF centre and spread    6  ( -4.968034,  3.181511,  3.171950 )     2.68282921
  WF centre and spread    7  ( -4.483159,  1.878472,  4.541896 )     2.54326769
  WF centre and spread    8  ( -4.967742,  4.974357,  4.987481 )     2.75296496
  Sum of centres and spreads (-29.852207, 29.847186, 27.156560 )    22.61128001
 
     45    -0.371E-02     0.2909392218       22.6112655535       0.66  <-- CONV
        O_D=      0.3057041 O_OD=      5.0971395 O_TOT=     22.6112656 <-- SPRD
 Delta: O_D=  0.4091508E-02 O_OD= -0.7803835E-02 O_TOT= -0.3712328E-02 <-- DLTA
 ------------------------------------------------------------------------------
 Cycle:     46
  WF centre and spread    1  ( -3.171001,  3.174176,  4.946738 )     2.77601956
  WF centre and spread    2  ( -3.612067,  3.714601,  1.742779 )     3.23429435
  WF centre and spread    3  ( -1.054535,  1.619902,  0.749833 )     2.57689382
  WF centre and spread    4  ( -3.174784,  4.962135,  3.181209 )     2.68857934
  WF centre and spread    5  ( -4.420355,  6.342137,  3.834943 )     3.35117633
  WF centre and spread    6  ( -4.968035,  3.181511,  3.171950 )     2.68283267
  WF centre and spread    7  ( -4.483167,  1.878465,  4.541894 )     2.54328318
  WF centre and spread    8  ( -4.967741,  4.974355,  4.987477 )     2.75295018
  Sum of centres and spreads (-29.851684, 29.847282, 27.156823 )    22.60602944
 
     46    -0.525E-02     0.7927450936       22.6060149801       0.67  <-- CONV
        O_D=      0.3008893 O_OD=      5.0967037 O_TOT=     22.6060150 <-- SPRD
 Delta: O_D= -0.4814752E-02 O_OD= -0.4358211E-03 O_TOT= -0.5250573E-02 <-- DLTA
 ------------------------------------------------------------------------------
 Cycle:     47
  WF centre and spread    1  ( -3.170950,  3.174136,  4.946833 )     2.77240315
  WF centre and spread    2  ( -3.607640,  3.715026,  1.743999 )     3.23201196
  WF centre and spread    3  ( -1.054226,  1.620373,  0.750001 )     2.57655029
  WF centre and spread    4  ( -3.174790,  4.962171,  3.181204 )     2.68808436
  WF centre and spread    5  ( -4.416048,  6.342467,  3.835603 )     3.35008817
  WF centre and spread    6  ( -4.968044,  3.181511,  3.171959 )     2.68288454
  WF centre and spread    7  ( -4.483280,  1.878377,  4.541863 )     2.54348568
  WF centre and spread    8  ( -4.967738,  4.974335,  4.987423 )     2.75275694
  Sum of centres and spreads (-29.842715, 29.848395, 27.158885 )    22.59826508
 
     47    -0.776E-02     0.3033215951       22.5982506202       0.68  <-- CONV
        O_D=      0.2991911 O_OD=      5.0906375 O_TOT=     22.5982506 <-- SPRD
 Delta: O_D= -0.1698248E-02 O_OD= -0.6066112E-02 O_TOT= -0.7764360E-02 <-- DLTA
 ------------------------------------------------------------------------------
 Cycle:     48
  WF centre and spread    1  ( -3.170983,  3.173894,  4.947264 )     2.75578204
  WF centre and spread    2  ( -3.607543,  3.711154,  1.745098 )     3.24650583
  WF centre and spread    3  ( -1.052835,  1.622664,  0.750769 )     2.57599271
  WF centre and spread    4  ( -3.174876,  4.962334,  3.181169 )     2.68601077
  WF centre and spread    5  ( -4.417916,  6.339178,  3.834813 )     3.35025441
  WF centre and spread    6  ( -4.968092,  3.181508,  3.172007 )     2.68322066
  WF centre and spread    7  ( -4.483942,  1.877916,  4.541652 )     2.54448240
  WF centre and spread    8  ( -4.967734,  4.974229,  4.987156 )     2.75190098
  Sum of centres and spreads (-29.843922, 29.842879, 27.159927 )    22.59414979
 
     48    -0.412E-02     0.2506479352       22.5941353339       0.70  <-- CONV
        O_D=      0.3217232 O_OD=      5.0639901 O_TOT=     22.5941353 <-- SPRD
 Delta: O_D=  0.2253212E-01 O_OD= -0.2664741E-01 O_TOT= -0.4115286E-02 <-- DLTA
 ------------------------------------------------------------------------------
 Cycle:     49
  WF centre and spread    1  ( -3.170984,  3.173898,  4.947266 )     2.75575443
  WF centre and spread    2  ( -3.607094,  3.711897,  1.744853 )     3.23298616
  WF centre and spread    3  ( -1.052824,  1.622681,  0.750774 )     2.57599712
  WF centre and spread    4  ( -3.174877,  4.962335,  3.181168 )     2.68600713
  WF centre and spread    5  ( -4.418459,  6.339691,  3.834647 )     3.35656260
  WF centre and spread    6  ( -4.968092,  3.181508,  3.172007 )     2.68322361
  WF centre and spread    7  ( -4.483947,  1.877913,  4.541651 )     2.54449490
  WF centre and spread    8  ( -4.967734,  4.974228,  4.987154 )     2.75189520
  Sum of centres and spreads (-29.844012, 29.844152, 27.159520 )    22.58692115
 
     49    -0.723E-02     1.2786755046       22.5869066926       0.71  <-- CONV
        O_D=      0.3143501 O_OD=      5.0641346 O_TOT=     22.5869067 <-- SPRD
 Delta: O_D= -0.7373077E-02 O_OD=  0.1444360E-03 O_TOT= -0.7228641E-02 <-- DLTA
 ------------------------------------------------------------------------------
 Cycle:     50
  WF centre and spread    1  ( -3.170992,  3.173914,  4.947275 )     2.75548801
  WF centre and spread    2  ( -3.607689,  3.715758,  1.744436 )     3.22932732
  WF centre and spread    3  ( -1.052754,  1.622795,  0.750810 )     2.57603378
  WF centre and spread    4  ( -3.174883,  4.962344,  3.181166 )     2.68595930
  WF centre and spread    5  ( -4.418391,  6.343724,  3.833408 )     3.34597409
  WF centre and spread    6  ( -4.968095,  3.181508,  3.172010 )     2.68324405
  WF centre and spread    7  ( -4.483981,  1.877890,  4.541644 )     2.54457813
  WF centre and spread    8  ( -4.967734,  4.974222,  4.987141 )     2.75185799
  Sum of centres and spreads (-29.844519, 29.852155, 27.157890 )    22.57246266
 
     50    -0.145E-01     0.8434907693       22.5724482003       0.72  <-- CONV
        O_D=      0.2989872 O_OD=      5.0650390 O_TOT=     22.5724482 <-- SPRD
 Delta: O_D= -0.1536289E-01 O_OD=  0.9043963E-03 O_TOT= -0.1445849E-01 <-- DLTA
 ------------------------------------------------------------------------------
 Cycle:     51
  WF centre and spread    1  ( -3.171001,  3.173890,  4.947303 )     2.75454918
  WF centre and spread    2  ( -3.608205,  3.713897,  1.743783 )     3.22797550
  WF centre and spread    3  ( -1.052655,  1.622968,  0.750867 )     2.57606378
  WF centre and spread    4  ( -3.174891,  4.962355,  3.181163 )     2.68588060
  WF centre and spread    5  ( -4.419356,  6.341869,  3.832655 )     3.34377409
  WF centre and spread    6  ( -4.968098,  3.181508,  3.172015 )     2.68327256
  WF centre and spread    7  ( -4.484036,  1.877855,  4.541626 )     2.54467194
  WF centre and spread    8  ( -4.967734,  4.974213,  4.987122 )     2.75180528
  Sum of centres and spreads (-29.845978, 29.848555, 27.156533 )    22.56799293
 
     51    -0.447E-02     0.3605286983       22.5679784699       0.74  <-- CONV
        O_D=      0.2964989 O_OD=      5.0630575 O_TOT=     22.5679785 <-- SPRD
 Delta: O_D= -0.2488301E-02 O_OD= -0.1981429E-02 O_TOT= -0.4469730E-02 <-- DLTA
 ------------------------------------------------------------------------------
 Cycle:     52
  WF centre and spread    1  ( -3.171003,  3.173887,  4.947309 )     2.75437472
  WF centre and spread    2  ( -3.608160,  3.713615,  1.743732 )     3.22806996
  WF centre and spread    3  ( -1.052637,  1.622999,  0.750877 )     2.57606829
  WF centre and spread    4  ( -3.174893,  4.962357,  3.181162 )     2.68586646
  WF centre and spread    5  ( -4.419726,  6.341764,  3.832655 )     3.34336021
  WF centre and spread    6  ( -4.968099,  3.181508,  3.172015 )     2.68327767
  WF centre and spread    7  ( -4.484046,  1.877849,  4.541622 )     2.54469016
  WF centre and spread    8  ( -4.967734,  4.974212,  4.987118 )     2.75179552
  Sum of centres and spreads (-29.846298, 29.848191, 27.156492 )    22.56750300
 
     52    -0.490E-03     0.3997953346       22.5674885382       0.75  <-- CONV
        O_D=      0.2963238 O_OD=      5.0627428 O_TOT=     22.5674885 <-- SPRD
 Delta: O_D= -0.1751662E-03 O_OD= -0.3147654E-03 O_TOT= -0.4899316E-03 <-- DLTA
 ------------------------------------------------------------------------------
 Cycle:     53
  WF centre and spread    1  ( -3.171015,  3.173870,  4.947350 )     2.75317374
  WF centre and spread    2  ( -3.609473,  3.714119,  1.745066 )     3.22890499
  WF centre and spread    3  ( -1.052515,  1.623197,  0.750943 )     2.57609070
  WF centre and spread    4  ( -3.174902,  4.962371,  3.181159 )     2.68576609
  WF centre and spread    5  ( -4.421425,  6.342234,  3.833487 )     3.34255079
  WF centre and spread    6  ( -4.968104,  3.181507,  3.172020 )     2.68330850
  WF centre and spread    7  ( -4.484106,  1.877810,  4.541602 )     2.54481459
  WF centre and spread    8  ( -4.967733,  4.974202,  4.987096 )     2.75173097
  Sum of centres and spreads (-29.849273, 29.849310, 27.158723 )    22.56634037
 
     53    -0.116E-02     0.1982677457       22.5663259113       0.76  <-- CONV
        O_D=      0.2968891 O_OD=      5.0610148 O_TOT=     22.5663259 <-- SPRD
 Delta: O_D=  0.5653563E-03 O_OD= -0.1727983E-02 O_TOT= -0.1162627E-02 <-- DLTA
 ------------------------------------------------------------------------------
 Cycle:     54
  WF centre and spread    1  ( -3.171014,  3.173869,  4.947351 )     2.75310227
  WF centre and spread    2  ( -3.609527,  3.714181,  1.745017 )     3.22826049
  WF centre and spread    3  ( -1.052508,  1.623208,  0.750947 )     2.57609014
  WF centre and spread    4  ( -3.174902,  4.962371,  3.181159 )     2.68575976
  WF centre and spread    5  ( -4.421101,  6.342126,  3.833362 )     3.34258611
  WF centre and spread    6  ( -4.968104,  3.181507,  3.172020 )     2.68331007
  WF centre and spread    7  ( -4.484109,  1.877808,  4.541601 )     2.54482170
  WF centre and spread    8  ( -4.967733,  4.974201,  4.987095 )     2.75172705
  Sum of centres and spreads (-29.848999, 29.849273, 27.158553 )    22.56565760
 
     54    -0.683E-03     0.4903961833       22.5656431413       0.78  <-- CONV
        O_D=      0.2963211 O_OD=      5.0609001 O_TOT=     22.5656431 <-- SPRD
 Delta: O_D= -0.5680430E-03 O_OD= -0.1147270E-03 O_TOT= -0.6827700E-03 <-- DLTA
 ------------------------------------------------------------------------------
 Cycle:     55
  WF centre and spread    1  ( -3.171010,  3.173859,  4.947366 )     2.75243960
  WF centre and spread    2  ( -3.607729,  3.713472,  1.743595 )     3.22757303
  WF centre and spread    3  ( -1.052442,  1.623316,  0.750985 )     2.57608042
  WF centre and spread    4  ( -3.174905,  4.962378,  3.181157 )     2.68570541
  WF centre and spread    5  ( -4.419765,  6.341767,  3.832273 )     3.34279547
  WF centre and spread    6  ( -4.968106,  3.181507,  3.172023 )     2.68332521
  WF centre and spread    7  ( -4.484139,  1.877787,  4.541595 )     2.54488664
  WF centre and spread    8  ( -4.967732,  4.974196,  4.987083 )     2.75169164
  Sum of centres and spreads (-29.845828, 29.848283, 27.156076 )    22.56449743
 
     55    -0.116E-02     0.2326645793       22.5644829682       0.79  <-- CONV
        O_D=      0.2962319 O_OD=      5.0598291 O_TOT=     22.5644830 <-- SPRD
 Delta: O_D= -0.8916520E-04 O_OD= -0.1071008E-02 O_TOT= -0.1160173E-02 <-- DLTA
 ------------------------------------------------------------------------------
 Cycle:     56
  WF centre and spread    1  ( -3.171021,  3.173814,  4.947472 )     2.74886650
  WF centre and spread    2  ( -3.606221,  3.714587,  1.743731 )     3.22675139
  WF centre and spread    3  ( -1.052072,  1.623908,  0.751189 )     2.57612292
  WF centre and spread    4  ( -3.174926,  4.962417,  3.181147 )     2.68541710
  WF centre and spread    5  ( -4.419320,  6.342967,  3.831726 )     3.34446717
  WF centre and spread    6  ( -4.968118,  3.181505,  3.172036 )     2.68341300
  WF centre and spread    7  ( -4.484309,  1.877673,  4.541544 )     2.54527335
  WF centre and spread    8  ( -4.967728,  4.974167,  4.987017 )     2.75149598
  Sum of centres and spreads (-29.843717, 29.851039, 27.155862 )    22.56180742
 
     56    -0.269E-02     0.2231769473       22.5617929659       0.80  <-- CONV
        O_D=      0.2986453 O_OD=      5.0547256 O_TOT=     22.5617930 <-- SPRD
 Delta: O_D=  0.2413422E-02 O_OD= -0.5103424E-02 O_TOT= -0.2690002E-02 <-- DLTA
 ------------------------------------------------------------------------------
 Cycle:     57
  WF centre and spread    1  ( -3.171022,  3.173813,  4.947474 )     2.74882137
  WF centre and spread    2  ( -3.606722,  3.714631,  1.743990 )     3.22700774
  WF centre and spread    3  ( -1.052067,  1.623916,  0.751192 )     2.57612610
  WF centre and spread    4  ( -3.174927,  4.962418,  3.181147 )     2.68541361
  WF centre and spread    5  ( -4.419182,  6.342750,  3.831837 )     3.34249025
  WF centre and spread    6  ( -4.968119,  3.181505,  3.172036 )     2.68341426
  WF centre and spread    7  ( -4.484312,  1.877671,  4.541543 )     2.54527836
  WF centre and spread    8  ( -4.967728,  4.974167,  4.987016 )     2.75149356
  Sum of centres and spreads (-29.844079, 29.850871, 27.156234 )    22.56004525
 
     57    -0.176E-02     0.9370216305       22.5600307952       0.82  <-- CONV
        O_D=      0.2969928 O_OD=      5.0546160 O_TOT=     22.5600308 <-- SPRD
 Delta: O_D= -0.1652558E-02 O_OD= -0.1096130E-03 O_TOT= -0.1762171E-02 <-- DLTA
 ------------------------------------------------------------------------------
 Cycle:     58
  WF centre and spread    1  ( -3.171031,  3.173800,  4.947494 )     2.74829468
  WF centre and spread    2  ( -3.608292,  3.713321,  1.745024 )     3.22667672
  WF centre and spread    3  ( -1.052015,  1.624004,  0.751220 )     2.57615141
  WF centre and spread    4  ( -3.174932,  4.962424,  3.181145 )     2.68537984
  WF centre and spread    5  ( -4.421356,  6.341545,  3.832938 )     3.34133204
  WF centre and spread    6  ( -4.968121,  3.181505,  3.172038 )     2.68342917
  WF centre and spread    7  ( -4.484341,  1.877653,  4.541531 )     2.54533252
  WF centre and spread    8  ( -4.967728,  4.974163,  4.987006 )     2.75146773
  Sum of centres and spreads (-29.847816, 29.848415, 27.158398 )    22.55806412
 
     58    -0.198E-02     0.3165010671       22.5580496576       0.83  <-- CONV
        O_D=      0.2962324 O_OD=      5.0533953 O_TOT=     22.5580497 <-- SPRD
 Delta: O_D= -0.7604200E-03 O_OD= -0.1220718E-02 O_TOT= -0.1981138E-02 <-- DLTA
 ------------------------------------------------------------------------------
 Cycle:     59
  WF centre and spread    1  ( -3.171033,  3.173795,  4.947503 )     2.74801765
  WF centre and spread    2  ( -3.608554,  3.713401,  1.745086 )     3.22690076
  WF centre and spread    3  ( -1.051986,  1.624053,  0.751237 )     2.57616172
  WF centre and spread    4  ( -3.174934,  4.962427,  3.181145 )     2.68535769
[...]
  Sum of centres and spreads (-29.867872, 29.867872, 27.152611 )    21.59339909
 
    221    -0.932E-11     0.0000177911       21.5933846444       3.06  <-- CONV
        O_D=      0.3010081 O_OD=      4.0839546 O_TOT=     21.5933846 <-- SPRD
 Delta: O_D= -0.1122824E-11 O_OD= -0.8192558E-11 O_TOT= -0.9318768E-11 <-- DLTA
 ------------------------------------------------------------------------------
 Cycle:    222
  WF centre and spread    1  ( -3.177191,  3.177189,  4.968592 )     2.69917379
  WF centre and spread    2  ( -3.610947,  3.610980,  1.819561 )     2.69917135
  WF centre and spread    3  ( -0.895717,  1.819549,  0.895675 )     2.69917035
  WF centre and spread    4  ( -3.177190,  4.968593,  3.177191 )     2.69917345
  WF centre and spread    5  ( -4.534829,  6.326206,  3.610989 )     2.69917343
  WF centre and spread    6  ( -4.968593,  3.177192,  3.177190 )     2.69917421
  WF centre and spread    7  ( -4.534812,  1.819570,  4.534819 )     2.69917968
  WF centre and spread    8  ( -4.968592,  4.968592,  4.968594 )     2.69918283
  Sum of centres and spreads (-29.867872, 29.867872, 27.152611 )    21.59339909
 
    222    -0.125E-08     0.0000177766       21.5933846431       3.08  <-- CONV
        O_D=      0.3010081 O_OD=      4.0839546 O_TOT=     21.5933846 <-- SPRD
 Delta: O_D=  0.1334001E-09 O_OD= -0.1379936E-08 O_TOT= -0.1246537E-08 <-- DLTA
 ------------------------------------------------------------------------------
 Cycle:    223
  WF centre and spread    1  ( -3.177191,  3.177189,  4.968592 )     2.69917379
  WF centre and spread    2  ( -3.610947,  3.610980,  1.819561 )     2.69917135
  WF centre and spread    3  ( -0.895717,  1.819549,  0.895675 )     2.69917035
  WF centre and spread    4  ( -3.177190,  4.968593,  3.177191 )     2.69917345
  WF centre and spread    5  ( -4.534829,  6.326206,  3.610989 )     2.69917343
  WF centre and spread    6  ( -4.968593,  3.177192,  3.177190 )     2.69917421
  WF centre and spread    7  ( -4.534812,  1.819570,  4.534819 )     2.69917968
  WF centre and spread    8  ( -4.968592,  4.968592,  4.968594 )     2.69918283
  Sum of centres and spreads (-29.867872, 29.867872, 27.152611 )    21.59339909
 
    223    -0.169E-10     0.0000172758       21.5933846431       3.08  <-- CONV
        O_D=      0.3010081 O_OD=      4.0839546 O_TOT=     21.5933846 <-- SPRD
 Delta: O_D=  0.5386080E-11 O_OD= -0.2223999E-10 O_TOT= -0.1685407E-10 <-- DLTA
 ------------------------------------------------------------------------------
 Cycle:    224
  WF centre and spread    1  ( -3.177191,  3.177190,  4.968593 )     2.69917379
  WF centre and spread    2  ( -3.610958,  3.610967,  1.819560 )     2.69917179
  WF centre and spread    3  ( -0.895706,  1.819557,  0.895694 )     2.69917010
  WF centre and spread    4  ( -3.177190,  4.968593,  3.177191 )     2.69917373
  WF centre and spread    5  ( -4.534823,  6.326219,  3.610970 )     2.69917280
  WF centre and spread    6  ( -4.968593,  3.177191,  3.177190 )     2.69917412
  WF centre and spread    7  ( -4.534819,  1.819563,  4.534820 )     2.69917999
  WF centre and spread    8  ( -4.968592,  4.968592,  4.968593 )     2.69918277
  Sum of centres and spreads (-29.867872, 29.867872, 27.152611 )    21.59339908
 
    224    -0.308E-08     0.0000172678       21.5933846400       3.10  <-- CONV
        O_D=      0.3010081 O_OD=      4.0839545 O_TOT=     21.5933846 <-- SPRD
 Delta: O_D=  0.1453399E-07 O_OD= -0.1761665E-07 O_TOT= -0.3082654E-08 <-- DLTA
 ------------------------------------------------------------------------------
 Cycle:    225
  WF centre and spread    1  ( -3.177191,  3.177190,  4.968593 )     2.69917380
  WF centre and spread    2  ( -3.610958,  3.610967,  1.819560 )     2.69917173
  WF centre and spread    3  ( -0.895706,  1.819557,  0.895694 )     2.69917009
  WF centre and spread    4  ( -3.177190,  4.968593,  3.177191 )     2.69917372
  WF centre and spread    5  ( -4.534823,  6.326219,  3.610970 )     2.69917290
  WF centre and spread    6  ( -4.968593,  3.177191,  3.177190 )     2.69917411
  WF centre and spread    7  ( -4.534819,  1.819563,  4.534820 )     2.69917997
  WF centre and spread    8  ( -4.968592,  4.968592,  4.968593 )     2.69918276
  Sum of centres and spreads (-29.867872, 29.867872, 27.152611 )    21.59339907
 
    225    -0.855E-08     0.0001269659       21.5933846315       3.11  <-- CONV
        O_D=      0.3010081 O_OD=      4.0839545 O_TOT=     21.5933846 <-- SPRD
 Delta: O_D= -0.6694063E-08 O_OD= -0.1857503E-08 O_TOT= -0.8551567E-08 <-- DLTA
 ------------------------------------------------------------------------------
 Cycle:    226
  WF centre and spread    1  ( -3.177191,  3.177190,  4.968593 )     2.69917380
  WF centre and spread    2  ( -3.610958,  3.610967,  1.819560 )     2.69917163
  WF centre and spread    3  ( -0.895706,  1.819557,  0.895694 )     2.69917007
  WF centre and spread    4  ( -3.177190,  4.968593,  3.177191 )     2.69917372
  WF centre and spread    5  ( -4.534823,  6.326219,  3.610969 )     2.69917306
  WF centre and spread    6  ( -4.968593,  3.177191,  3.177190 )     2.69917411
  WF centre and spread    7  ( -4.534819,  1.819563,  4.534821 )     2.69917993
  WF centre and spread    8  ( -4.968592,  4.968592,  4.968593 )     2.69918276
  Sum of centres and spreads (-29.867872, 29.867872, 27.152611 )    21.59339907
 
    226    -0.502E-09     0.0000222374       21.5933846310       3.13  <-- CONV
        O_D=      0.3010081 O_OD=      4.0839545 O_TOT=     21.5933846 <-- SPRD
 Delta: O_D= -0.7953684E-09 O_OD=  0.2932010E-09 O_TOT= -0.5021654E-09 <-- DLTA
 ------------------------------------------------------------------------------
 Cycle:    227
  WF centre and spread    1  ( -3.177191,  3.177190,  4.968593 )     2.69917380
  WF centre and spread    2  ( -3.610958,  3.610967,  1.819560 )     2.69917162
  WF centre and spread    3  ( -0.895706,  1.819557,  0.895694 )     2.69917007
  WF centre and spread    4  ( -3.177190,  4.968593,  3.177191 )     2.69917372
  WF centre and spread    5  ( -4.534823,  6.326219,  3.610969 )     2.69917307
  WF centre and spread    6  ( -4.968593,  3.177191,  3.177190 )     2.69917411
  WF centre and spread    7  ( -4.534819,  1.819563,  4.534821 )     2.69917993
  WF centre and spread    8  ( -4.968592,  4.968592,  4.968593 )     2.69918276
  Sum of centres and spreads (-29.867872, 29.867872, 27.152611 )    21.59339907
 
    227    -0.159E-10     0.0000088595       21.5933846310       3.14  <-- CONV
        O_D=      0.3010081 O_OD=      4.0839545 O_TOT=     21.5933846 <-- SPRD
 Delta: O_D= -0.5648787E-10 O_OD=  0.4056488E-10 O_TOT= -0.1592326E-10 <-- DLTA
 ------------------------------------------------------------------------------
 Cycle:    228
  WF centre and spread    1  ( -3.177191,  3.177190,  4.968593 )     2.69917380
  WF centre and spread    2  ( -3.610958,  3.610967,  1.819560 )     2.69917162
  WF centre and spread    3  ( -0.895706,  1.819557,  0.895694 )     2.69917007
  WF centre and spread    4  ( -3.177190,  4.968593,  3.177191 )     2.69917372
  WF centre and spread    5  ( -4.534823,  6.326219,  3.610969 )     2.69917307
  WF centre and spread    6  ( -4.968593,  3.177191,  3.177190 )     2.69917411
  WF centre and spread    7  ( -4.534819,  1.819563,  4.534821 )     2.69917993
  WF centre and spread    8  ( -4.968592,  4.968592,  4.968593 )     2.69918276
  Sum of centres and spreads (-29.867872, 29.867872, 27.152611 )    21.59339907
 
    228    -0.264E-11     0.0000084084       21.5933846310       3.15  <-- CONV
        O_D=      0.3010081 O_OD=      4.0839545 O_TOT=     21.5933846 <-- SPRD
 Delta: O_D= -0.8821610E-11 O_OD=  0.6185275E-11 O_TOT= -0.2636114E-11 <-- DLTA
 ------------------------------------------------------------------------------
 Cycle:    229
  WF centre and spread    1  ( -3.177190,  3.177190,  4.968593 )     2.69917383
  WF centre and spread    2  ( -3.610959,  3.610967,  1.819560 )     2.69917128
  WF centre and spread    3  ( -0.895705,  1.819557,  0.895695 )     2.69917005
  WF centre and spread    4  ( -3.177190,  4.968593,  3.177191 )     2.69917368
  WF centre and spread    5  ( -4.534823,  6.326219,  3.610969 )     2.69917363
  WF centre and spread    6  ( -4.968593,  3.177191,  3.177190 )     2.69917410
  WF centre and spread    7  ( -4.534819,  1.819562,  4.534821 )     2.69917976
  WF centre and spread    8  ( -4.968592,  4.968592,  4.968593 )     2.69918274
  Sum of centres and spreads (-29.867872, 29.867872, 27.152611 )    21.59339907
 
    229     0.376E-09     0.0000083281       21.5933846313       3.16  <-- CONV
        O_D=      0.3010081 O_OD=      4.0839545 O_TOT=     21.5933846 <-- SPRD
 Delta: O_D= -0.2523043E-08 O_OD=  0.2899476E-08 O_TOT=  0.3764313E-09 <-- DLTA
 ------------------------------------------------------------------------------
 Cycle:    230
  WF centre and spread    1  ( -3.177190,  3.177190,  4.968593 )     2.69917383
  WF centre and spread    2  ( -3.610959,  3.610967,  1.819560 )     2.69917131
  WF centre and spread    3  ( -0.895705,  1.819557,  0.895695 )     2.69917008
  WF centre and spread    4  ( -3.177190,  4.968593,  3.177191 )     2.69917368
  WF centre and spread    5  ( -4.534823,  6.326219,  3.610969 )     2.69917356
  WF centre and spread    6  ( -4.968593,  3.177191,  3.177190 )     2.69917411
  WF centre and spread    7  ( -4.534819,  1.819562,  4.534821 )     2.69917977
  WF centre and spread    8  ( -4.968592,  4.968592,  4.968593 )     2.69918273
  Sum of centres and spreads (-29.867872, 29.867872, 27.152611 )    21.59339907
 
    230    -0.179E-09     0.0000337172       21.5933846312       3.18  <-- CONV
        O_D=      0.3010081 O_OD=      4.0839546 O_TOT=     21.5933846 <-- SPRD
 Delta: O_D= -0.1770441E-08 O_OD=  0.1591516E-08 O_TOT= -0.1789253E-09 <-- DLTA
 ------------------------------------------------------------------------------
 Cycle:    231
  WF centre and spread    1  ( -3.177190,  3.177190,  4.968593 )     2.69917383
  WF centre and spread    2  ( -3.610959,  3.610967,  1.819560 )     2.69917133
  WF centre and spread    3  ( -0.895705,  1.819557,  0.895695 )     2.69917009
  WF centre and spread    4  ( -3.177190,  4.968593,  3.177191 )     2.69917367
  WF centre and spread    5  ( -4.534823,  6.326219,  3.610969 )     2.69917353
  WF centre and spread    6  ( -4.968593,  3.177191,  3.177190 )     2.69917412
  WF centre and spread    7  ( -4.534819,  1.819562,  4.534821 )     2.69917977
  WF centre and spread    8  ( -4.968592,  4.968592,  4.968593 )     2.69918273
  Sum of centres and spreads (-29.867872, 29.867872, 27.152611 )    21.59339907
 
    231    -0.680E-10     0.0000319823       21.5933846311       3.19  <-- CONV
        O_D=      0.3010081 O_OD=      4.0839546 O_TOT=     21.5933846 <-- SPRD
 Delta: O_D= -0.4564104E-09 O_OD=  0.3883898E-09 O_TOT= -0.6802026E-10 <-- DLTA
 ------------------------------------------------------------------------------
 Cycle:    232
  WF centre and spread    1  ( -3.177191,  3.177190,  4.968593 )     2.69917383
  WF centre and spread    2  ( -3.610959,  3.610966,  1.819560 )     2.69917137
  WF centre and spread    3  ( -0.895705,  1.819557,  0.895695 )     2.69917012
  WF centre and spread    4  ( -3.177190,  4.968593,  3.177191 )     2.69917366
  WF centre and spread    5  ( -4.534823,  6.326220,  3.610968 )     2.69917346
  WF centre and spread    6  ( -4.968593,  3.177191,  3.177190 )     2.69917413
  WF centre and spread    7  ( -4.534819,  1.819562,  4.534821 )     2.69917977
  WF centre and spread    8  ( -4.968592,  4.968593,  4.968593 )     2.69918274
  Sum of centres and spreads (-29.867872, 29.867872, 27.152611 )    21.59339907
 
    232    -0.486E-09     0.0000304012       21.5933846306       3.21  <-- CONV
        O_D=      0.3010081 O_OD=      4.0839546 O_TOT=     21.5933846 <-- SPRD
 Delta: O_D= -0.1013675E-08 O_OD=  0.5278968E-09 O_TOT= -0.4857768E-09 <-- DLTA
 ------------------------------------------------------------------------------
 Cycle:    233
  WF centre and spread    1  ( -3.177191,  3.177190,  4.968593 )     2.69917383
  WF centre and spread    2  ( -3.610959,  3.610966,  1.819560 )     2.69917137
  WF centre and spread    3  ( -0.895705,  1.819557,  0.895695 )     2.69917012
  WF centre and spread    4  ( -3.177190,  4.968593,  3.177191 )     2.69917366
  WF centre and spread    5  ( -4.534823,  6.326220,  3.610968 )     2.69917346
  WF centre and spread    6  ( -4.968593,  3.177191,  3.177190 )     2.69917413
  WF centre and spread    7  ( -4.534819,  1.819562,  4.534821 )     2.69917977
  WF centre and spread    8  ( -4.968592,  4.968593,  4.968593 )     2.69918274
  Sum of centres and spreads (-29.867872, 29.867872, 27.152611 )    21.59339907
 
    233    -0.243E-10     0.0000123978       21.5933846306       3.22  <-- CONV
        O_D=      0.3010081 O_OD=      4.0839546 O_TOT=     21.5933846 <-- SPRD
 Delta: O_D=  0.8332501E-11 O_OD= -0.3261924E-10 O_TOT= -0.2428990E-10 <-- DLTA
 ------------------------------------------------------------------------------
 Cycle:    234
  WF centre and spread    1  ( -3.177191,  3.177190,  4.968593 )     2.69917383
  WF centre and spread    2  ( -3.610959,  3.610966,  1.819560 )     2.69917137
  WF centre and spread    3  ( -0.895705,  1.819557,  0.895695 )     2.69917012
  WF centre and spread    4  ( -3.177190,  4.968593,  3.177191 )     2.69917366
  WF centre and spread    5  ( -4.534823,  6.326220,  3.610968 )     2.69917346
  WF centre and spread    6  ( -4.968593,  3.177191,  3.177190 )     2.69917413
  WF centre and spread    7  ( -4.534819,  1.819562,  4.534821 )     2.69917977
  WF centre and spread    8  ( -4.968592,  4.968593,  4.968593 )     2.69918274
  Sum of centres and spreads (-29.867872, 29.867872, 27.152611 )    21.59339907
 
    234    -0.395E-10     0.0000108688       21.5933846305       3.23  <-- CONV
        O_D=      0.3010081 O_OD=      4.0839546 O_TOT=     21.5933846 <-- SPRD
 Delta: O_D=  0.4646256E-10 O_OD= -0.8591439E-10 O_TOT= -0.3945289E-10 <-- DLTA
 ------------------------------------------------------------------------------
 Cycle:    235
  WF centre and spread    1  ( -3.177191,  3.177190,  4.968593 )     2.69917383
  WF centre and spread    2  ( -3.610959,  3.610966,  1.819560 )     2.69917137
  WF centre and spread    3  ( -0.895705,  1.819557,  0.895695 )     2.69917012
  WF centre and spread    4  ( -3.177190,  4.968593,  3.177191 )     2.69917366
  WF centre and spread    5  ( -4.534823,  6.326220,  3.610968 )     2.69917346
  WF centre and spread    6  ( -4.968593,  3.177191,  3.177190 )     2.69917413
  WF centre and spread    7  ( -4.534819,  1.819562,  4.534821 )     2.69917977
  WF centre and spread    8  ( -4.968592,  4.968593,  4.968593 )     2.69918274
  Sum of centres and spreads (-29.867872, 29.867872, 27.152611 )    21.59339907
 
    235    -0.277E-10     0.0000076589       21.5933846305       3.25  <-- CONV
        O_D=      0.3010081 O_OD=      4.0839546 O_TOT=     21.5933846 <-- SPRD
 Delta: O_D=  0.7336337E-10 O_OD= -0.1010445E-09 O_TOT= -0.2767919E-10 <-- DLTA
 ------------------------------------------------------------------------------
 Cycle:    236
  WF centre and spread    1  ( -3.177191,  3.177190,  4.968593 )     2.69917383
  WF centre and spread    2  ( -3.610959,  3.610966,  1.819560 )     2.69917137
  WF centre and spread    3  ( -0.895705,  1.819557,  0.895695 )     2.69917012
  WF centre and spread    4  ( -3.177190,  4.968593,  3.177191 )     2.69917366
  WF centre and spread    5  ( -4.534823,  6.326220,  3.610968 )     2.69917347
  WF centre and spread    6  ( -4.968593,  3.177191,  3.177190 )     2.69917413
  WF centre and spread    7  ( -4.534819,  1.819562,  4.534821 )     2.69917977
  WF centre and spread    8  ( -4.968592,  4.968593,  4.968593 )     2.69918274
  Sum of centres and spreads (-29.867872, 29.867872, 27.152611 )    21.59339907
 
    236    -0.312E-11     0.0000047649       21.5933846305       3.26  <-- CONV
        O_D=      0.3010081 O_OD=      4.0839546 O_TOT=     21.5933846 <-- SPRD
 Delta: O_D=  0.1866352E-10 O_OD= -0.2177991E-10 O_TOT= -0.3115730E-11 <-- DLTA
 ------------------------------------------------------------------------------
 Cycle:    237
  WF centre and spread    1  ( -3.177191,  3.177190,  4.968593 )     2.69917383
  WF centre and spread    2  ( -3.610959,  3.610966,  1.819560 )     2.69917137
  WF centre and spread    3  ( -0.895705,  1.819557,  0.895696 )     2.69917012
  WF centre and spread    4  ( -3.177190,  4.968593,  3.177191 )     2.69917366
  WF centre and spread    5  ( -4.534823,  6.326220,  3.610968 )     2.69917347
  WF centre and spread    6  ( -4.968593,  3.177191,  3.177190 )     2.69917413
  WF centre and spread    7  ( -4.534819,  1.819562,  4.534821 )     2.69917977
  WF centre and spread    8  ( -4.968592,  4.968593,  4.968593 )     2.69918274
  Sum of centres and spreads (-29.867872, 29.867872, 27.152611 )    21.59339907
 
    237    -0.150E-10     0.0000045220       21.5933846305       3.28  <-- CONV
        O_D=      0.3010081 O_OD=      4.0839546 O_TOT=     21.5933846 <-- SPRD
 Delta: O_D=  0.1092296E-09 O_OD= -0.1242046E-09 O_TOT= -0.1497469E-10 <-- DLTA
 ------------------------------------------------------------------------------

             <<<     Delta < 1.000E-10  over  5 iterations     >>>
             <<< Wannierisation convergence criteria satisfied >>>

 Final State
  WF centre and spread    1  ( -3.177191,  3.177190,  4.968593 )     2.69917383
  WF centre and spread    2  ( -3.610959,  3.610966,  1.819560 )     2.69917137
  WF centre and spread    3  ( -0.895705,  1.819557,  0.895696 )     2.69917012
  WF centre and spread    4  ( -3.177190,  4.968593,  3.177191 )     2.69917366
  WF centre and spread    5  ( -4.534823,  6.326220,  3.610968 )     2.69917347
  WF centre and spread    6  ( -4.968593,  3.177191,  3.177190 )     2.69917413
  WF centre and spread    7  ( -4.534819,  1.819562,  4.534821 )     2.69917977
  WF centre and spread    8  ( -4.968592,  4.968593,  4.968593 )     2.69918274
  Sum of centres and spreads (-29.867872, 29.867872, 27.152611 )    21.59339907
 
         Spreads (Ang^2)       Omega I      =    17.208422000
        ================       Omega D      =     0.301008080
                               Omega OD     =     4.083954551
    Final Spread (Ang^2)       Omega Total  =    21.593384630
 ------------------------------------------------------------------------------

 Wannier centres written to file wann_centres.xyz
 Time for wannierise            3.207 (sec)

 Writing checkpoint file wann.chk... done

 *---------------------------------------------------------------------------*
 |                               PLOTTING                                    |
 *---------------------------------------------------------------------------*
 
 
 Calculating interpolated band-structure
 
 Time to calculate interpolated band structure       0.529 (sec)
 
 Time for plotting              1.122 (sec)
 Total Execution Time           4.554 (sec)

 *===========================================================================*
 |                             TIMING INFORMATION                            |
 *===========================================================================*
 |    Tag                                                Ncalls      Time (s)|
 |---------------------------------------------------------------------------|
 |kmesh: get                                        :         1         0.106|
 |overlap: allocate                                 :         1         0.001|
 |overlap: read                                     :         1         0.091|
 |wann: main                                        :         1         3.207|
 |plot: main                                        :         1         1.122|
 *---------------------------------------------------------------------------*
 
 All done: wannier90 exiting
