
     Program PWSCF v.7.1 starts on 12Oct2022 at 13:59:35 

     This program is part of the open-source Quantum ESPRESSO suite
     for quantum simulation of materials; please cite
         "P. Giannozzi et al., J. Phys.:Condens. Matter 21 395502 (2009);
         "P. Giannozzi et al., J. Phys.:Condens. Matter 29 465901 (2017);
         "P. Giannozzi et al., J. Chem. Phys. 152 154105 (2020);
          URL http://www.quantum-espresso.org", 
     in publications or presentations arising from this work. More details at
     http://www.quantum-espresso.org/quote

     Parallel version (MPI), running on     1 processors

     MPI processes distributed on     1 nodes
     350 MiB available memory on the printing compute node when the environment starts

     Waiting for input...
     Reading input from standard input

     Current dimensions of program PWSCF are:
     Max number of different atomic species (ntypx) = 10
     Max number of k-points (npk) =  40000
     Max angular momentum in pseudopotentials (lmaxx) =  4

     IMPORTANT: XC functional enforced from input :
     Exchange-correlation= SCAN
                           (   0   0   0   0   0 263 267)
     Any further DFT definition will be discarded
     Please, verify this is what you really want


     Subspace diagonalization in iterative solution of the eigenvalue problem:
     a serial algorithm will be used


     G-vector sticks info
     --------------------
     sticks:   dense  smooth     PW     G-vecs:    dense   smooth      PW
     Sum         395     395    129                 4921     4921     935

     Using Slab Decomposition



     bravais-lattice index     =            3
     lattice parameter (alat)  =       5.4060  a.u.
     unit-cell volume          =      78.9947 (a.u.)^3
     number of atoms/cell      =            1
     number of atomic types    =            1
     number of electrons       =        16.00
     number of Kohn-Sham states=           12
     kinetic-energy cutoff     =      60.0000  Ry
     charge density cutoff     =     240.0000  Ry
     scf convergence threshold =      1.0E-12
     mixing beta               =       0.7000
     number of iterations used =            8  plain     mixing
     Exchange-correlation= SCAN
                           (   0   0   0   0   0 263 267)

     celldm(1)=   5.406000  celldm(2)=   0.000000  celldm(3)=   0.000000
     celldm(4)=   0.000000  celldm(5)=   0.000000  celldm(6)=   0.000000

     crystal axes: (cart. coord. in units of alat)
               a(1) = (   0.500000   0.500000   0.500000 )  
               a(2) = (  -0.500000   0.500000   0.500000 )  
               a(3) = (  -0.500000  -0.500000   0.500000 )  

     reciprocal axes: (cart. coord. in units 2 pi/alat)
               b(1) = (  1.000000  0.000000  1.000000 )  
               b(2) = ( -1.000000  1.000000  0.000000 )  
               b(3) = (  0.000000 -1.000000  1.000000 )  


     PseudoPot. # 1 for Fe read from file:
     ../../files/pseudo/Fe.pbe_PseudoDojo.UPF
     MD5 check sum: a5f07f5dca5be6cacb81ceb54992e4ae
     Pseudo is Norm-conserving + core correction, Zval = 16.0
     Generated using ONCVPSP code by D. R. Hamann
     Using radial grid of 1426 points,  6 beta functions with: 
                l(1) =   0
                l(2) =   0
                l(3) =   1
                l(4) =   1
                l(5) =   2
                l(6) =   2

     atomic species   valence    mass     pseudopotential
        Fe            16.00    55.84500     Fe( 1.00)

     Starting magnetic structure 
     atomic species   magnetization
        Fe           0.300

     48 Sym. Ops., with inversion, found


                                    s                        frac. trans.

      isym =  1     identity                                     

 cryst.   s( 1) = (     1          0          0      )
                  (     0          1          0      )
                  (     0          0          1      )

 cart.    s( 1) = (  1.0000000  0.0000000  0.0000000 )
                  (  0.0000000  1.0000000  0.0000000 )
                  (  0.0000000  0.0000000  1.0000000 )


      isym =  2     180 deg rotation - cart. axis [0,0,1]        

 cryst.   s( 2) = (     0          0          1      )
                  (     1         -1          1      )
                  (     1          0          0      )

 cart.    s( 2) = ( -1.0000000  0.0000000  0.0000000 )
                  (  0.0000000 -1.0000000  0.0000000 )
                  (  0.0000000  0.0000000  1.0000000 )


      isym =  3     180 deg rotation - cart. axis [0,1,0]        

 cryst.   s( 3) = (    -1          1         -1      )
                  (     0          0         -1      )
                  (     0         -1          0      )

 cart.    s( 3) = ( -1.0000000  0.0000000  0.0000000 )
                  (  0.0000000  1.0000000  0.0000000 )
                  (  0.0000000  0.0000000 -1.0000000 )


      isym =  4     180 deg rotation - cart. axis [1,0,0]        

 cryst.   s( 4) = (     0         -1          0      )
                  (    -1          0          0      )
                  (    -1          1         -1      )

 cart.    s( 4) = (  1.0000000  0.0000000  0.0000000 )
                  (  0.0000000 -1.0000000  0.0000000 )
                  (  0.0000000  0.0000000 -1.0000000 )


      isym =  5     180 deg rotation - cart. axis [1,1,0]        

 cryst.   s( 5) = (     0          0         -1      )
                  (     0         -1          0      )
                  (    -1          0          0      )

 cart.    s( 5) = (  0.0000000  1.0000000  0.0000000 )
                  (  1.0000000  0.0000000  0.0000000 )
                  (  0.0000000  0.0000000 -1.0000000 )


      isym =  6     180 deg rotation - cart. axis [1,-1,0]       

 cryst.   s( 6) = (    -1          0          0      )
                  (    -1          1         -1      )
                  (     0          0         -1      )

 cart.    s( 6) = (  0.0000000 -1.0000000  0.0000000 )
                  ( -1.0000000  0.0000000  0.0000000 )
                  (  0.0000000  0.0000000 -1.0000000 )


      isym =  7      90 deg rotation - cart. axis [0,0,-1]       

 cryst.   s( 7) = (     1         -1          1      )
                  (     1          0          0      )
                  (     0          1          0      )

 cart.    s( 7) = (  0.0000000  1.0000000  0.0000000 )
                  ( -1.0000000  0.0000000  0.0000000 )
                  (  0.0000000  0.0000000  1.0000000 )


      isym =  8      90 deg rotation - cart. axis [0,0,1]        

 cryst.   s( 8) = (     0          1          0      )
                  (     0          0          1      )
                  (     1         -1          1      )

 cart.    s( 8) = (  0.0000000 -1.0000000  0.0000000 )
                  (  1.0000000  0.0000000  0.0000000 )
                  (  0.0000000  0.0000000  1.0000000 )


      isym =  9     180 deg rotation - cart. axis [1,0,1]        

 cryst.   s( 9) = (     1         -1          1      )
                  (     0         -1          0      )
                  (     0          0         -1      )

 cart.    s( 9) = (  0.0000000  0.0000000  1.0000000 )
                  (  0.0000000 -1.0000000  0.0000000 )
                  (  1.0000000  0.0000000  0.0000000 )


      isym = 10     180 deg rotation - cart. axis [-1,0,1]       

 cryst.   s(10) = (    -1          0          0      )
                  (     0          0          1      )
                  (     0          1          0      )

 cart.    s(10) = (  0.0000000  0.0000000 -1.0000000 )
                  (  0.0000000 -1.0000000  0.0000000 )
                  ( -1.0000000  0.0000000  0.0000000 )


      isym = 11      90 deg rotation - cart. axis [0,1,0]        

 cryst.   s(11) = (     0          0         -1      )
                  (     1          0          0      )
                  (     1         -1          1      )

 cart.    s(11) = (  0.0000000  0.0000000  1.0000000 )
                  (  0.0000000  1.0000000  0.0000000 )
                  ( -1.0000000  0.0000000  0.0000000 )


      isym = 12      90 deg rotation - cart. axis [0,-1,0]       

 cryst.   s(12) = (     0          1          0      )
                  (    -1          1         -1      )
                  (    -1          0          0      )

 cart.    s(12) = (  0.0000000  0.0000000 -1.0000000 )
                  (  0.0000000  1.0000000  0.0000000 )
                  (  1.0000000  0.0000000  0.0000000 )


      isym = 13     180 deg rotation - cart. axis [0,1,1]        

 cryst.   s(13) = (     0          1          0      )
                  (     1          0          0      )
                  (     0          0         -1      )

 cart.    s(13) = ( -1.0000000  0.0000000  0.0000000 )
                  (  0.0000000  0.0000000  1.0000000 )
                  (  0.0000000  1.0000000  0.0000000 )


      isym = 14     180 deg rotation - cart. axis [0,1,-1]       

 cryst.   s(14) = (    -1          0          0      )
                  (     0         -1          0      )
                  (     1         -1          1      )

 cart.    s(14) = ( -1.0000000  0.0000000  0.0000000 )
                  (  0.0000000  0.0000000 -1.0000000 )
                  (  0.0000000 -1.0000000  0.0000000 )


      isym = 15      90 deg rotation - cart. axis [-1,0,0]       

 cryst.   s(15) = (     0          0         -1      )
                  (    -1          1         -1      )
                  (     0          1          0      )

 cart.    s(15) = (  1.0000000  0.0000000  0.0000000 )
                  (  0.0000000  0.0000000  1.0000000 )
                  (  0.0000000 -1.0000000  0.0000000 )


      isym = 16      90 deg rotation - cart. axis [1,0,0]        

 cryst.   s(16) = (     1         -1          1      )
                  (     0          0          1      )
                  (    -1          0          0      )

 cart.    s(16) = (  1.0000000  0.0000000  0.0000000 )
                  (  0.0000000  0.0000000 -1.0000000 )
                  (  0.0000000  1.0000000  0.0000000 )


      isym = 17     120 deg rotation - cart. axis [-1,-1,-1]     

 cryst.   s(17) = (     1          0          0      )
                  (     0          0         -1      )
                  (    -1          1         -1      )

 cart.    s(17) = (  0.0000000  1.0000000  0.0000000 )
                  (  0.0000000  0.0000000  1.0000000 )
                  (  1.0000000  0.0000000  0.0000000 )


      isym = 18     120 deg rotation - cart. axis [-1,1,1]       

 cryst.   s(18) = (    -1          1         -1      )
                  (     0          1          0      )
                  (     1          0          0      )

 cart.    s(18) = (  0.0000000 -1.0000000  0.0000000 )
                  (  0.0000000  0.0000000  1.0000000 )
                  ( -1.0000000  0.0000000  0.0000000 )


      isym = 19     120 deg rotation - cart. axis [1,1,-1]       

 cryst.   s(19) = (     0         -1          0      )
                  (     1         -1          1      )
                  (     0          0          1      )

 cart.    s(19) = (  0.0000000  1.0000000  0.0000000 )
                  (  0.0000000  0.0000000 -1.0000000 )
                  ( -1.0000000  0.0000000  0.0000000 )


      isym = 20     120 deg rotation - cart. axis [1,-1,1]       

 cryst.   s(20) = (     0          0          1      )
                  (    -1          0          0      )
                  (     0         -1          0      )

 cart.    s(20) = (  0.0000000 -1.0000000  0.0000000 )
                  (  0.0000000  0.0000000 -1.0000000 )
                  (  1.0000000  0.0000000  0.0000000 )


      isym = 21     120 deg rotation - cart. axis [1,1,1]        

 cryst.   s(21) = (     1          0          0      )
                  (     1         -1          1      )
                  (     0         -1          0      )

 cart.    s(21) = (  0.0000000  0.0000000  1.0000000 )
                  (  1.0000000  0.0000000  0.0000000 )
                  (  0.0000000  1.0000000  0.0000000 )


      isym = 22     120 deg rotation - cart. axis [-1,1,-1]      

 cryst.   s(22) = (     0         -1          0      )
                  (     0          0         -1      )
                  (     1          0          0      )

 cart.    s(22) = (  0.0000000  0.0000000  1.0000000 )
                  ( -1.0000000  0.0000000  0.0000000 )
                  (  0.0000000 -1.0000000  0.0000000 )


      isym = 23     120 deg rotation - cart. axis [1,-1,-1]      

 cryst.   s(23) = (     0          0          1      )
                  (     0          1          0      )
                  (    -1          1         -1      )

 cart.    s(23) = (  0.0000000  0.0000000 -1.0000000 )
                  ( -1.0000000  0.0000000  0.0000000 )
                  (  0.0000000  1.0000000  0.0000000 )


      isym = 24     120 deg rotation - cart. axis [-1,-1,1]      

 cryst.   s(24) = (    -1          1         -1      )
                  (    -1          0          0      )
                  (     0          0          1      )

 cart.    s(24) = (  0.0000000  0.0000000 -1.0000000 )
                  (  1.0000000  0.0000000  0.0000000 )
                  (  0.0000000 -1.0000000  0.0000000 )


      isym = 25     inversion                                    

 cryst.   s(25) = (    -1          0          0      )
                  (     0         -1          0      )
                  (     0          0         -1      )

 cart.    s(25) = ( -1.0000000  0.0000000  0.0000000 )
                  (  0.0000000 -1.0000000  0.0000000 )
                  (  0.0000000  0.0000000 -1.0000000 )


      isym = 26     inv. 180 deg rotation - cart. axis [0,0,1]   

 cryst.   s(26) = (     0          0         -1      )
                  (    -1          1         -1      )
                  (    -1          0          0      )

 cart.    s(26) = (  1.0000000  0.0000000  0.0000000 )
                  (  0.0000000  1.0000000  0.0000000 )
                  (  0.0000000  0.0000000 -1.0000000 )


      isym = 27     inv. 180 deg rotation - cart. axis [0,1,0]   

 cryst.   s(27) = (     1         -1          1      )
                  (     0          0          1      )
                  (     0          1          0      )

 cart.    s(27) = (  1.0000000  0.0000000  0.0000000 )
                  (  0.0000000 -1.0000000  0.0000000 )
                  (  0.0000000  0.0000000  1.0000000 )


      isym = 28     inv. 180 deg rotation - cart. axis [1,0,0]   

 cryst.   s(28) = (     0          1          0      )
                  (     1          0          0      )
                  (     1         -1          1      )

 cart.    s(28) = ( -1.0000000  0.0000000  0.0000000 )
                  (  0.0000000  1.0000000  0.0000000 )
                  (  0.0000000  0.0000000  1.0000000 )


      isym = 29     inv. 180 deg rotation - cart. axis [1,1,0]   

 cryst.   s(29) = (     0          0          1      )
                  (     0          1          0      )
                  (     1          0          0      )

 cart.    s(29) = (  0.0000000 -1.0000000  0.0000000 )
                  ( -1.0000000  0.0000000  0.0000000 )
                  (  0.0000000  0.0000000  1.0000000 )


      isym = 30     inv. 180 deg rotation - cart. axis [1,-1,0]  

 cryst.   s(30) = (     1          0          0      )
                  (     1         -1          1      )
                  (     0          0          1      )

 cart.    s(30) = (  0.0000000  1.0000000  0.0000000 )
                  (  1.0000000  0.0000000  0.0000000 )
                  (  0.0000000  0.0000000  1.0000000 )


      isym = 31     inv.  90 deg rotation - cart. axis [0,0,-1]  

 cryst.   s(31) = (    -1          1         -1      )
                  (    -1          0          0      )
                  (     0         -1          0      )

 cart.    s(31) = (  0.0000000 -1.0000000  0.0000000 )
                  (  1.0000000  0.0000000  0.0000000 )
                  (  0.0000000  0.0000000 -1.0000000 )


      isym = 32     inv.  90 deg rotation - cart. axis [0,0,1]   

 cryst.   s(32) = (     0         -1          0      )
                  (     0          0         -1      )
                  (    -1          1         -1      )

 cart.    s(32) = (  0.0000000  1.0000000  0.0000000 )
                  ( -1.0000000  0.0000000  0.0000000 )
                  (  0.0000000  0.0000000 -1.0000000 )


      isym = 33     inv. 180 deg rotation - cart. axis [1,0,1]   

 cryst.   s(33) = (    -1          1         -1      )
                  (     0          1          0      )
                  (     0          0          1      )

 cart.    s(33) = (  0.0000000  0.0000000 -1.0000000 )
                  (  0.0000000  1.0000000  0.0000000 )
                  ( -1.0000000  0.0000000  0.0000000 )


      isym = 34     inv. 180 deg rotation - cart. axis [-1,0,1]  

 cryst.   s(34) = (     1          0          0      )
                  (     0          0         -1      )
                  (     0         -1          0      )

 cart.    s(34) = (  0.0000000  0.0000000  1.0000000 )
                  (  0.0000000  1.0000000  0.0000000 )
                  (  1.0000000  0.0000000  0.0000000 )


      isym = 35     inv.  90 deg rotation - cart. axis [0,1,0]   

 cryst.   s(35) = (     0          0          1      )
                  (    -1          0          0      )
                  (    -1          1         -1      )

 cart.    s(35) = (  0.0000000  0.0000000 -1.0000000 )
                  (  0.0000000 -1.0000000  0.0000000 )
                  (  1.0000000  0.0000000  0.0000000 )


      isym = 36     inv.  90 deg rotation - cart. axis [0,-1,0]  

 cryst.   s(36) = (     0         -1          0      )
                  (     1         -1          1      )
                  (     1          0          0      )

 cart.    s(36) = (  0.0000000  0.0000000  1.0000000 )
                  (  0.0000000 -1.0000000  0.0000000 )
                  ( -1.0000000  0.0000000  0.0000000 )


      isym = 37     inv. 180 deg rotation - cart. axis [0,1,1]   

 cryst.   s(37) = (     0         -1          0      )
                  (    -1          0          0      )
                  (     0          0          1      )

 cart.    s(37) = (  1.0000000  0.0000000  0.0000000 )
                  (  0.0000000  0.0000000 -1.0000000 )
                  (  0.0000000 -1.0000000  0.0000000 )


      isym = 38     inv. 180 deg rotation - cart. axis [0,1,-1]  

 cryst.   s(38) = (     1          0          0      )
                  (     0          1          0      )
                  (    -1          1         -1      )

 cart.    s(38) = (  1.0000000  0.0000000  0.0000000 )
                  (  0.0000000  0.0000000  1.0000000 )
                  (  0.0000000  1.0000000  0.0000000 )


      isym = 39     inv.  90 deg rotation - cart. axis [-1,0,0]  

 cryst.   s(39) = (     0          0          1      )
                  (     1         -1          1      )
                  (     0         -1          0      )

 cart.    s(39) = ( -1.0000000  0.0000000  0.0000000 )
                  (  0.0000000  0.0000000 -1.0000000 )
                  (  0.0000000  1.0000000  0.0000000 )


      isym = 40     inv.  90 deg rotation - cart. axis [1,0,0]   

 cryst.   s(40) = (    -1          1         -1      )
                  (     0          0         -1      )
                  (     1          0          0      )

 cart.    s(40) = ( -1.0000000  0.0000000  0.0000000 )
                  (  0.0000000  0.0000000  1.0000000 )
                  (  0.0000000 -1.0000000  0.0000000 )


      isym = 41     inv. 120 deg rotation - cart. axis [-1,-1,-1]

 cryst.   s(41) = (    -1          0          0      )
                  (     0          0          1      )
                  (     1         -1          1      )

 cart.    s(41) = (  0.0000000 -1.0000000  0.0000000 )
                  (  0.0000000  0.0000000 -1.0000000 )
                  ( -1.0000000  0.0000000  0.0000000 )


      isym = 42     inv. 120 deg rotation - cart. axis [-1,1,1]  

 cryst.   s(42) = (     1         -1          1      )
                  (     0         -1          0      )
                  (    -1          0          0      )

 cart.    s(42) = (  0.0000000  1.0000000  0.0000000 )
                  (  0.0000000  0.0000000 -1.0000000 )
                  (  1.0000000  0.0000000  0.0000000 )


      isym = 43     inv. 120 deg rotation - cart. axis [1,1,-1]  

 cryst.   s(43) = (     0          1          0      )
                  (    -1          1         -1      )
                  (     0          0         -1      )

 cart.    s(43) = (  0.0000000 -1.0000000  0.0000000 )
                  (  0.0000000  0.0000000  1.0000000 )
                  (  1.0000000  0.0000000  0.0000000 )


      isym = 44     inv. 120 deg rotation - cart. axis [1,-1,1]  

 cryst.   s(44) = (     0          0         -1      )
                  (     1          0          0      )
                  (     0          1          0      )

 cart.    s(44) = (  0.0000000  1.0000000  0.0000000 )
                  (  0.0000000  0.0000000  1.0000000 )
                  ( -1.0000000  0.0000000  0.0000000 )


      isym = 45     inv. 120 deg rotation - cart. axis [1,1,1]   

 cryst.   s(45) = (    -1          0          0      )
                  (    -1          1         -1      )
                  (     0          1          0      )

 cart.    s(45) = (  0.0000000  0.0000000 -1.0000000 )
                  ( -1.0000000  0.0000000  0.0000000 )
                  (  0.0000000 -1.0000000  0.0000000 )


      isym = 46     inv. 120 deg rotation - cart. axis [-1,1,-1] 

 cryst.   s(46) = (     0          1          0      )
                  (     0          0          1      )
                  (    -1          0          0      )

 cart.    s(46) = (  0.0000000  0.0000000 -1.0000000 )
                  (  1.0000000  0.0000000  0.0000000 )
                  (  0.0000000  1.0000000  0.0000000 )


      isym = 47     inv. 120 deg rotation - cart. axis [1,-1,-1] 

 cryst.   s(47) = (     0          0         -1      )
                  (     0         -1          0      )
                  (     1         -1          1      )

 cart.    s(47) = (  0.0000000  0.0000000  1.0000000 )
                  (  1.0000000  0.0000000  0.0000000 )
                  (  0.0000000 -1.0000000  0.0000000 )


      isym = 48     inv. 120 deg rotation - cart. axis [-1,-1,1] 

 cryst.   s(48) = (     1         -1          1      )
                  (     1          0          0      )
                  (     0          0         -1      )

 cart.    s(48) = (  0.0000000  0.0000000  1.0000000 )
                  ( -1.0000000  0.0000000  0.0000000 )
                  (  0.0000000  1.0000000  0.0000000 )


     point group O_h (m-3m) 
     there are 10 classes
     the character table:

       E     8C3   3C2   6C4   6C2'  i     8S6   3s_h  6S4   6s_d 
A_1g   1.00  1.00  1.00  1.00  1.00  1.00  1.00  1.00  1.00  1.00
A_2g   1.00  1.00  1.00 -1.00 -1.00  1.00  1.00  1.00 -1.00 -1.00
E_g    2.00 -1.00  2.00  0.00  0.00  2.00 -1.00  2.00  0.00  0.00
T_1g   3.00  0.00 -1.00  1.00 -1.00  3.00  0.00 -1.00  1.00 -1.00
T_2g   3.00  0.00 -1.00 -1.00  1.00  3.00  0.00 -1.00 -1.00  1.00
A_1u   1.00  1.00  1.00  1.00  1.00 -1.00 -1.00 -1.00 -1.00 -1.00
A_2u   1.00  1.00  1.00 -1.00 -1.00 -1.00 -1.00 -1.00  1.00  1.00
E_u    2.00 -1.00  2.00  0.00  0.00 -2.00  1.00 -2.00  0.00  0.00
T_1u   3.00  0.00 -1.00  1.00 -1.00 -3.00  0.00  1.00 -1.00  1.00
T_2u   3.00  0.00 -1.00 -1.00  1.00 -3.00  0.00  1.00  1.00 -1.00

     the symmetry operations in each class and the name of the first element:

     E        1
          identity                                               
     8C3     17   19   20   18   24   21   22   23
          120 deg rotation - cart. axis [-1,-1,-1]               
     3C2      2    4    3
          180 deg rotation - cart. axis [0,0,1]                  
     6C4      7    8   15   16   12   11
           90 deg rotation - cart. axis [0,0,-1]                 
     6C2'     5    6   14   13   10    9
          180 deg rotation - cart. axis [1,1,0]                  
     i       25
          inversion                                              
     8S6     41   43   44   42   48   45   46   47
          inv. 120 deg rotation - cart. axis [-1,-1,-1]          
     3s_h    26   28   27
          inv. 180 deg rotation - cart. axis [0,0,1]             
     6S4     31   32   39   40   36   35
          inv.  90 deg rotation - cart. axis [0,0,-1]            
     6s_d    29   30   38   37   34   33
          inv. 180 deg rotation - cart. axis [1,1,0]             

   Cartesian axes

     site n.     atom                  positions (alat units)
         1           Fe  tau(   1) = (   0.0000000   0.0000000   0.0000000  )

   Crystallographic axes

     site n.     atom                  positions (cryst. coord.)
         1           Fe  tau(   1) = (  0.0000000  0.0000000  0.0000000  )

     number of k points=    84  Marzari-Vanderbilt smearing, width (Ry)=  0.0100
                       cart. coord. in units 2pi/alat
        k(    1) = (   0.0000000   0.0000000   0.0000000), wk =   0.0004552
        k(    2) = (   0.0000000  -0.0769231   0.0769231), wk =   0.0054620
        k(    3) = (   0.0000000  -0.1538462   0.1538462), wk =   0.0054620
        k(    4) = (   0.0000000  -0.2307692   0.2307692), wk =   0.0054620
        k(    5) = (   0.0000000  -0.3076923   0.3076923), wk =   0.0054620
        k(    6) = (   0.0000000  -0.3846154   0.3846154), wk =   0.0054620
        k(    7) = (   0.0000000  -0.4615385   0.4615385), wk =   0.0054620
        k(    8) = (  -0.0769231  -0.0769231   0.1538462), wk =   0.0109240
        k(    9) = (  -0.0769231  -0.1538462   0.2307692), wk =   0.0218480
        k(   10) = (  -0.0769231  -0.2307692   0.3076923), wk =   0.0218480
        k(   11) = (  -0.0769231  -0.3076923   0.3846154), wk =   0.0218480
        k(   12) = (  -0.0769231  -0.3846154   0.4615385), wk =   0.0218480
        k(   13) = (  -0.0769231   0.5384615  -0.4615385), wk =   0.0109240
        k(   14) = (  -0.1538462  -0.1538462   0.3076923), wk =   0.0109240
        k(   15) = (  -0.1538462  -0.2307692   0.3846154), wk =   0.0218480
        k(   16) = (  -0.1538462  -0.3076923   0.4615385), wk =   0.0218480
        k(   17) = (  -0.1538462   0.6153846  -0.4615385), wk =   0.0218480
        k(   18) = (  -0.2307692  -0.2307692   0.4615385), wk =   0.0109240
        k(   19) = (  -0.2307692   0.6923077  -0.4615385), wk =   0.0218480
        k(   20) = (  -0.2307692   0.6153846  -0.3846154), wk =   0.0109240
        k(   21) = (  -0.3076923   0.6923077  -0.3846154), wk =   0.0109240
        k(   22) = (   0.0000000   0.0000000   0.1538462), wk =   0.0027310
        k(   23) = (   0.0000000  -0.0769231   0.2307692), wk =   0.0109240
        k(   24) = (   0.0000000  -0.1538462   0.3076923), wk =   0.0109240
        k(   25) = (   0.0000000  -0.2307692   0.3846154), wk =   0.0109240
        k(   26) = (   0.0000000  -0.3076923   0.4615385), wk =   0.0109240
        k(   27) = (   0.0000000  -0.3846154   0.5384615), wk =   0.0109240
        k(   28) = (  -0.0769231  -0.0769231   0.3076923), wk =   0.0109240
        k(   29) = (  -0.0769231  -0.1538462   0.3846154), wk =   0.0218480
        k(   30) = (  -0.0769231  -0.2307692   0.4615385), wk =   0.0218480
        k(   31) = (  -0.0769231  -0.3076923   0.5384615), wk =   0.0218480
        k(   32) = (  -0.0769231   0.6153846  -0.3846154), wk =   0.0109240
        k(   33) = (  -0.1538462   0.1538462   0.1538462), wk =   0.0036413
        k(   34) = (  -0.1538462  -0.1538462   0.4615385), wk =   0.0109240
        k(   35) = (  -0.1538462  -0.2307692   0.5384615), wk =   0.0218480
        k(   36) = (  -0.1538462   0.6923077  -0.3846154), wk =   0.0218480
        k(   37) = (  -0.2307692   0.2307692   0.1538462), wk =   0.0109240
        k(   38) = (  -0.2307692   0.7692308  -0.3846154), wk =   0.0109240
        k(   39) = (  -0.2307692   0.6923077  -0.3076923), wk =   0.0109240
        k(   40) = (  -0.3076923   0.3076923   0.1538462), wk =   0.0109240
        k(   41) = (  -0.3076923   0.2307692   0.2307692), wk =   0.0109240
        k(   42) = (  -0.3846154   0.3846154   0.1538462), wk =   0.0109240
        k(   43) = (  -0.3846154   0.3076923   0.2307692), wk =   0.0218480
        k(   44) = (   0.5384615  -0.5384615   0.1538462), wk =   0.0109240
        k(   45) = (   0.5384615  -0.6153846   0.2307692), wk =   0.0218480
        k(   46) = (   0.5384615  -0.6923077   0.3076923), wk =   0.0109240
        k(   47) = (   0.4615385  -0.5384615   0.2307692), wk =   0.0109240
        k(   48) = (   0.4615385  -0.6153846   0.3076923), wk =   0.0218480
        k(   49) = (   0.3846154  -0.6153846   0.3846154), wk =   0.0036413
        k(   50) = (   0.0000000   0.0000000   0.3076923), wk =   0.0027310
        k(   51) = (   0.0000000  -0.0769231   0.3846154), wk =   0.0109240
        k(   52) = (   0.0000000  -0.1538462   0.4615385), wk =   0.0109240
        k(   53) = (   0.0000000  -0.2307692   0.5384615), wk =   0.0109240
        k(   54) = (   0.0000000  -0.3076923   0.6153846), wk =   0.0109240
        k(   55) = (  -0.0769231  -0.0769231   0.4615385), wk =   0.0109240
        k(   56) = (  -0.0769231  -0.1538462   0.5384615), wk =   0.0218480
        k(   57) = (  -0.0769231  -0.2307692   0.6153846), wk =   0.0218480
        k(   58) = (  -0.0769231   0.6923077  -0.3076923), wk =   0.0109240
        k(   59) = (  -0.1538462  -0.1538462   0.6153846), wk =   0.0109240
        k(   60) = (  -0.1538462   0.7692308  -0.3076923), wk =   0.0218480
        k(   61) = (  -0.2307692   0.7692308  -0.2307692), wk =   0.0036413
        k(   62) = (  -0.3076923   0.3076923   0.3076923), wk =   0.0036413
        k(   63) = (   0.6153846  -0.6153846   0.3076923), wk =   0.0109240
        k(   64) = (   0.5384615  -0.5384615   0.3076923), wk =   0.0109240
        k(   65) = (   0.5384615  -0.6153846   0.3846154), wk =   0.0109240
        k(   66) = (   0.4615385  -0.5384615   0.3846154), wk =   0.0109240
        k(   67) = (   0.0000000   0.0000000   0.4615385), wk =   0.0027310
        k(   68) = (   0.0000000  -0.0769231   0.5384615), wk =   0.0109240
        k(   69) = (   0.0000000  -0.1538462   0.6153846), wk =   0.0109240
        k(   70) = (   0.0000000  -0.2307692   0.6923077), wk =   0.0109240
        k(   71) = (  -0.0769231  -0.0769231   0.6153846), wk =   0.0109240
        k(   72) = (  -0.0769231  -0.1538462   0.6923077), wk =   0.0218480
        k(   73) = (  -0.0769231   0.7692308  -0.2307692), wk =   0.0109240
        k(   74) = (  -0.1538462   0.8461538  -0.2307692), wk =   0.0109240
        k(   75) = (   0.5384615  -0.5384615   0.4615385), wk =   0.0036413
        k(   76) = (   0.0000000   0.0000000   0.6153846), wk =   0.0027310
        k(   77) = (   0.0000000  -0.0769231   0.6923077), wk =   0.0109240
        k(   78) = (   0.0000000  -0.1538462   0.7692308), wk =   0.0109240
        k(   79) = (  -0.0769231  -0.0769231   0.7692308), wk =   0.0109240
        k(   80) = (  -0.0769231   0.8461538  -0.1538462), wk =   0.0109240
        k(   81) = (   0.0000000   0.0000000   0.7692308), wk =   0.0027310
        k(   82) = (   0.0000000  -0.0769231   0.8461538), wk =   0.0109240
        k(   83) = (  -0.0769231   0.9230769  -0.0769231), wk =   0.0036413
        k(   84) = (   0.0000000   0.0000000   0.9230769), wk =   0.0027310

                       cryst. coord.
        k(    1) = (   0.0000000   0.0000000   0.0000000), wk =   0.0004552
        k(    2) = (   0.0000000   0.0000000   0.0769231), wk =   0.0054620
        k(    3) = (   0.0000000   0.0000000   0.1538462), wk =   0.0054620
        k(    4) = (   0.0000000   0.0000000   0.2307692), wk =   0.0054620
        k(    5) = (   0.0000000   0.0000000   0.3076923), wk =   0.0054620
        k(    6) = (   0.0000000   0.0000000   0.3846154), wk =   0.0054620
        k(    7) = (   0.0000000   0.0000000   0.4615385), wk =   0.0054620
        k(    8) = (   0.0000000   0.0769231   0.1538462), wk =   0.0109240
        k(    9) = (   0.0000000   0.0769231   0.2307692), wk =   0.0218480
        k(   10) = (   0.0000000   0.0769231   0.3076923), wk =   0.0218480
        k(   11) = (   0.0000000   0.0769231   0.3846154), wk =   0.0218480
        k(   12) = (   0.0000000   0.0769231   0.4615385), wk =   0.0218480
        k(   13) = (   0.0000000   0.0769231  -0.4615385), wk =   0.0109240
        k(   14) = (   0.0000000   0.1538462   0.3076923), wk =   0.0109240
        k(   15) = (   0.0000000   0.1538462   0.3846154), wk =   0.0218480
        k(   16) = (   0.0000000   0.1538462   0.4615385), wk =   0.0218480
        k(   17) = (   0.0000000   0.1538462  -0.4615385), wk =   0.0218480
        k(   18) = (   0.0000000   0.2307692   0.4615385), wk =   0.0109240
        k(   19) = (  -0.0000000   0.2307692  -0.4615385), wk =   0.0218480
        k(   20) = (   0.0000000   0.2307692  -0.3846154), wk =   0.0109240
        k(   21) = (   0.0000000   0.3076923  -0.3846154), wk =   0.0109240
        k(   22) = (   0.0769231   0.0769231   0.0769231), wk =   0.0027310
        k(   23) = (   0.0769231   0.0769231   0.1538462), wk =   0.0109240
        k(   24) = (   0.0769231   0.0769231   0.2307692), wk =   0.0109240
        k(   25) = (   0.0769231   0.0769231   0.3076923), wk =   0.0109240
        k(   26) = (   0.0769231   0.0769231   0.3846154), wk =   0.0109240
        k(   27) = (   0.0769231   0.0769231   0.4615385), wk =   0.0109240
        k(   28) = (   0.0769231   0.1538462   0.2307692), wk =   0.0109240
        k(   29) = (   0.0769231   0.1538462   0.3076923), wk =   0.0218480
        k(   30) = (   0.0769231   0.1538462   0.3846154), wk =   0.0218480
        k(   31) = (   0.0769231   0.1538462   0.4615385), wk =   0.0218480
        k(   32) = (   0.0769231   0.1538462  -0.4615385), wk =   0.0109240
        k(   33) = (   0.0769231   0.2307692   0.0769231), wk =   0.0036413
        k(   34) = (   0.0769231   0.2307692   0.3846154), wk =   0.0109240
        k(   35) = (   0.0769231   0.2307692   0.4615385), wk =   0.0218480
        k(   36) = (   0.0769231   0.2307692  -0.4615385), wk =   0.0218480
        k(   37) = (   0.0769231   0.3076923   0.0769231), wk =   0.0109240
        k(   38) = (   0.0769231   0.3076923  -0.4615385), wk =   0.0109240
        k(   39) = (   0.0769231   0.3076923  -0.3846154), wk =   0.0109240
        k(   40) = (   0.0769231   0.3846154   0.0769231), wk =   0.0109240
        k(   41) = (   0.0769231   0.3846154   0.1538462), wk =   0.0109240
        k(   42) = (   0.0769231   0.4615385   0.0769231), wk =   0.0109240
        k(   43) = (   0.0769231   0.4615385   0.1538462), wk =   0.0218480
        k(   44) = (   0.0769231  -0.4615385   0.0769231), wk =   0.0109240
        k(   45) = (   0.0769231  -0.4615385   0.1538462), wk =   0.0218480
        k(   46) = (   0.0769231  -0.4615385   0.2307692), wk =   0.0109240
        k(   47) = (   0.0769231  -0.3846154   0.1538462), wk =   0.0109240
        k(   48) = (   0.0769231  -0.3846154   0.2307692), wk =   0.0218480
        k(   49) = (   0.0769231  -0.3076923   0.3076923), wk =   0.0036413
        k(   50) = (   0.1538462   0.1538462   0.1538462), wk =   0.0027310
        k(   51) = (   0.1538462   0.1538462   0.2307692), wk =   0.0109240
        k(   52) = (   0.1538462   0.1538462   0.3076923), wk =   0.0109240
        k(   53) = (   0.1538462   0.1538462   0.3846154), wk =   0.0109240
        k(   54) = (   0.1538462   0.1538462   0.4615385), wk =   0.0109240
        k(   55) = (   0.1538462   0.2307692   0.3076923), wk =   0.0109240
        k(   56) = (   0.1538462   0.2307692   0.3846154), wk =   0.0218480
        k(   57) = (   0.1538462   0.2307692   0.4615385), wk =   0.0218480
        k(   58) = (   0.1538462   0.2307692  -0.4615385), wk =   0.0109240
        k(   59) = (   0.1538462   0.3076923   0.4615385), wk =   0.0109240
        k(   60) = (   0.1538462   0.3076923  -0.4615385), wk =   0.0218480
        k(   61) = (   0.1538462   0.3846154  -0.3846154), wk =   0.0036413
        k(   62) = (   0.1538462   0.4615385   0.1538462), wk =   0.0036413
        k(   63) = (   0.1538462  -0.4615385   0.1538462), wk =   0.0109240
        k(   64) = (   0.1538462  -0.3846154   0.1538462), wk =   0.0109240
        k(   65) = (   0.1538462  -0.3846154   0.2307692), wk =   0.0109240
        k(   66) = (   0.1538462  -0.3076923   0.2307692), wk =   0.0109240
        k(   67) = (   0.2307692   0.2307692   0.2307692), wk =   0.0027310
        k(   68) = (   0.2307692   0.2307692   0.3076923), wk =   0.0109240
        k(   69) = (   0.2307692   0.2307692   0.3846154), wk =   0.0109240
        k(   70) = (   0.2307692   0.2307692   0.4615385), wk =   0.0109240
        k(   71) = (   0.2307692   0.3076923   0.3846154), wk =   0.0109240
        k(   72) = (   0.2307692   0.3076923   0.4615385), wk =   0.0218480
        k(   73) = (   0.2307692   0.3076923  -0.4615385), wk =   0.0109240
        k(   74) = (   0.2307692   0.3846154  -0.4615385), wk =   0.0109240
        k(   75) = (   0.2307692  -0.3076923   0.2307692), wk =   0.0036413
        k(   76) = (   0.3076923   0.3076923   0.3076923), wk =   0.0027310
        k(   77) = (   0.3076923   0.3076923   0.3846154), wk =   0.0109240
        k(   78) = (   0.3076923   0.3076923   0.4615385), wk =   0.0109240
        k(   79) = (   0.3076923   0.3846154   0.4615385), wk =   0.0109240
        k(   80) = (   0.3076923   0.3846154  -0.4615385), wk =   0.0109240
        k(   81) = (   0.3846154   0.3846154   0.3846154), wk =   0.0027310
        k(   82) = (   0.3846154   0.3846154   0.4615385), wk =   0.0109240
        k(   83) = (   0.3846154   0.4615385  -0.4615385), wk =   0.0036413
        k(   84) = (   0.4615385   0.4615385   0.4615385), wk =   0.0027310

     Dense  grid:     4921 G-vectors     FFT dimensions: (  24,  24,  24)

     Dynamical RAM for                 wfc:       0.11 MB

     Dynamical RAM for     wfc (w. buffer):      19.19 MB

     Dynamical RAM for           str. fact:       0.08 MB

     Dynamical RAM for           local pot:       0.00 MB

     Dynamical RAM for          nlocal pot:       0.17 MB

     Dynamical RAM for                qrad:       1.24 MB

     Dynamical RAM for          rho,v,vnew:       2.17 MB

     Dynamical RAM for               rhoin:       0.72 MB

     Dynamical RAM for            rho*nmix:       4.81 MB

     Dynamical RAM for           G-vectors:       0.32 MB

     Dynamical RAM for          h,s,v(r/c):       0.03 MB

     Dynamical RAM for          <psi|beta>:       0.00 MB

     Dynamical RAM for                 psi:       0.23 MB

     Dynamical RAM for                hpsi:       0.23 MB

     Dynamical RAM for      wfcinit/wfcrot:       0.23 MB

     Estimated static dynamical RAM per process >      24.88 MB

     Estimated max dynamical RAM per process >      30.17 MB

     WARNING: libxc functional with ID  263 depends
      on external parameters: check the user_guide of
      QE if you need to modify them or to check their
      default values.
     Generating pointlists ...
     new r_m :   0.3572 (alat units)  1.9312 (a.u.) for type    1

     Initial potential from superposition of free atoms

     starting charge      15.9996, renormalised to      16.0000
     Starting wfcs are   10 randomized atomic wfcs +    2 random wfcs

     total cpu time spent up to now is        1.9 secs

     Self-consistent Calculation

     iteration #  1     ecut=    60.00 Ry     beta= 0.70
     Davidson diagonalization with overlap

---- Real-time Memory Report at c_bands before calling an iterative solver
            52 MiB given to the printing process from OS
             0 MiB allocation reported by mallinfo(arena+hblkhd)
           319 MiB available memory on the node where the printing process lives
------------------
     ethr =  1.00E-02,  avg # of iterations =  3.9

     total cpu time spent up to now is        7.1 secs

     total energy              =    -240.71970624 Ry
     estimated scf accuracy    <    2568.56502607 Ry

     total magnetization       =     3.07 Bohr mag/cell
     absolute magnetization    =     3.11 Bohr mag/cell

     iteration #  2     ecut=    60.00 Ry     beta= 0.70
     Davidson diagonalization with overlap

---- Real-time Memory Report at c_bands before calling an iterative solver
            60 MiB given to the printing process from OS
             0 MiB allocation reported by mallinfo(arena+hblkhd)
           312 MiB available memory on the node where the printing process lives
------------------
     ethr =  1.00E-02,  avg # of iterations =  1.0

     total cpu time spent up to now is       10.8 secs

     total energy              =    -241.33715915 Ry
     estimated scf accuracy    <    1036.76799244 Ry

     total magnetization       =     2.66 Bohr mag/cell
     absolute magnetization    =     2.73 Bohr mag/cell

     iteration #  3     ecut=    60.00 Ry     beta= 0.70
     Davidson diagonalization with overlap

---- Real-time Memory Report at c_bands before calling an iterative solver
            61 MiB given to the printing process from OS
             0 MiB allocation reported by mallinfo(arena+hblkhd)
           311 MiB available memory on the node where the printing process lives
------------------
     ethr =  1.00E-02,  avg # of iterations =  2.0

     total cpu time spent up to now is       14.8 secs

     total energy              =    -241.03838157 Ry
     estimated scf accuracy    <    1056.43966357 Ry

     total magnetization       =     2.21 Bohr mag/cell
     absolute magnetization    =     2.39 Bohr mag/cell

     iteration #  4     ecut=    60.00 Ry     beta= 0.70
     Davidson diagonalization with overlap

---- Real-time Memory Report at c_bands before calling an iterative solver
            61 MiB given to the printing process from OS
             0 MiB allocation reported by mallinfo(arena+hblkhd)
           311 MiB available memory on the node where the printing process lives
------------------
     ethr =  1.00E-02,  avg # of iterations =  2.0

     total cpu time spent up to now is       18.9 secs

     total energy              =    -241.30360339 Ry
     estimated scf accuracy    <       2.90546239 Ry

     total magnetization       =     2.65 Bohr mag/cell
     absolute magnetization    =     2.81 Bohr mag/cell

     iteration #  5     ecut=    60.00 Ry     beta= 0.70
     Davidson diagonalization with overlap

---- Real-time Memory Report at c_bands before calling an iterative solver
            62 MiB given to the printing process from OS
             0 MiB allocation reported by mallinfo(arena+hblkhd)
           310 MiB available memory on the node where the printing process lives
------------------
     ethr =  1.00E-02,  avg # of iterations =  1.0

     total cpu time spent up to now is       22.7 secs

     total energy              =    -241.31307556 Ry
     estimated scf accuracy    <       4.96790445 Ry

     total magnetization       =     2.65 Bohr mag/cell
     absolute magnetization    =     2.85 Bohr mag/cell

     iteration #  6     ecut=    60.00 Ry     beta= 0.70
     Davidson diagonalization with overlap

---- Real-time Memory Report at c_bands before calling an iterative solver
            62 MiB given to the printing process from OS
             0 MiB allocation reported by mallinfo(arena+hblkhd)
           309 MiB available memory on the node where the printing process lives
------------------
     ethr =  1.00E-02,  avg # of iterations =  1.0

     total cpu time spent up to now is       26.6 secs

     total energy              =    -241.31319990 Ry
     estimated scf accuracy    <       3.12031763 Ry

     total magnetization       =     2.65 Bohr mag/cell
     absolute magnetization    =     2.86 Bohr mag/cell

     iteration #  7     ecut=    60.00 Ry     beta= 0.70
     Davidson diagonalization with overlap

---- Real-time Memory Report at c_bands before calling an iterative solver
            63 MiB given to the printing process from OS
             0 MiB allocation reported by mallinfo(arena+hblkhd)
           306 MiB available memory on the node where the printing process lives
------------------
     ethr =  1.00E-02,  avg # of iterations =  1.0

     total cpu time spent up to now is       30.7 secs

     total energy              =    -241.31351785 Ry
     estimated scf accuracy    <       0.08035179 Ry

     total magnetization       =     2.65 Bohr mag/cell
     absolute magnetization    =     2.89 Bohr mag/cell

     iteration #  8     ecut=    60.00 Ry     beta= 0.70
     Davidson diagonalization with overlap

---- Real-time Memory Report at c_bands before calling an iterative solver
            64 MiB given to the printing process from OS
             0 MiB allocation reported by mallinfo(arena+hblkhd)
           305 MiB available memory on the node where the printing process lives
------------------
     ethr =  5.02E-04,  avg # of iterations =  1.1

     total cpu time spent up to now is       34.8 secs

     total energy              =    -241.31358995 Ry
     estimated scf accuracy    <       0.04660176 Ry

     total magnetization       =     2.65 Bohr mag/cell
     absolute magnetization    =     2.91 Bohr mag/cell

     iteration #  9     ecut=    60.00 Ry     beta= 0.70
     Davidson diagonalization with overlap

---- Real-time Memory Report at c_bands before calling an iterative solver
            64 MiB given to the printing process from OS
             0 MiB allocation reported by mallinfo(arena+hblkhd)
           305 MiB available memory on the node where the printing process lives
------------------
     ethr =  2.91E-04,  avg # of iterations =  1.0

     total cpu time spent up to now is       38.9 secs

     total energy              =    -241.31360038 Ry
     estimated scf accuracy    <       0.00066745 Ry

     total magnetization       =     2.65 Bohr mag/cell
     absolute magnetization    =     2.91 Bohr mag/cell

     iteration # 10     ecut=    60.00 Ry     beta= 0.70
     Davidson diagonalization with overlap

---- Real-time Memory Report at c_bands before calling an iterative solver
            65 MiB given to the printing process from OS
             0 MiB allocation reported by mallinfo(arena+hblkhd)
           304 MiB available memory on the node where the printing process lives
------------------
     ethr =  4.17E-06,  avg # of iterations =  1.6

     total cpu time spent up to now is       43.0 secs

     total energy              =    -241.31360561 Ry
     estimated scf accuracy    <       0.00000352 Ry

     total magnetization       =     2.65 Bohr mag/cell
     absolute magnetization    =     2.91 Bohr mag/cell

     iteration # 11     ecut=    60.00 Ry     beta= 0.70
     Davidson diagonalization with overlap

---- Real-time Memory Report at c_bands before calling an iterative solver
            65 MiB given to the printing process from OS
             0 MiB allocation reported by mallinfo(arena+hblkhd)
           304 MiB available memory on the node where the printing process lives
------------------
     ethr =  2.20E-08,  avg # of iterations =  1.4

     total cpu time spent up to now is       47.2 secs

     total energy              =    -241.31360770 Ry
     estimated scf accuracy    <       0.00019789 Ry

     total magnetization       =     2.65 Bohr mag/cell
     absolute magnetization    =     2.91 Bohr mag/cell

     iteration # 12     ecut=    60.00 Ry     beta= 0.70
     Davidson diagonalization with overlap

---- Real-time Memory Report at c_bands before calling an iterative solver
            65 MiB given to the printing process from OS
             0 MiB allocation reported by mallinfo(arena+hblkhd)
           304 MiB available memory on the node where the printing process lives
------------------
     ethr =  2.20E-08,  avg # of iterations =  1.5

     total cpu time spent up to now is       51.5 secs

     total energy              =    -241.31360815 Ry
     estimated scf accuracy    <       0.00000029 Ry

     total magnetization       =     2.65 Bohr mag/cell
     absolute magnetization    =     2.92 Bohr mag/cell

     iteration # 13     ecut=    60.00 Ry     beta= 0.70
     Davidson diagonalization with overlap

---- Real-time Memory Report at c_bands before calling an iterative solver
            65 MiB given to the printing process from OS
             0 MiB allocation reported by mallinfo(arena+hblkhd)
           304 MiB available memory on the node where the printing process lives
------------------
     ethr =  1.81E-09,  avg # of iterations =  1.5

     total cpu time spent up to now is       55.8 secs

     total energy              =    -241.31360831 Ry
     estimated scf accuracy    <       0.00000793 Ry

     total magnetization       =     2.65 Bohr mag/cell
     absolute magnetization    =     2.92 Bohr mag/cell

     iteration # 14     ecut=    60.00 Ry     beta= 0.70
     Davidson diagonalization with overlap

---- Real-time Memory Report at c_bands before calling an iterative solver
            65 MiB given to the printing process from OS
             0 MiB allocation reported by mallinfo(arena+hblkhd)
           304 MiB available memory on the node where the printing process lives
------------------
     ethr =  1.81E-09,  avg # of iterations =  1.5

     total cpu time spent up to now is       60.1 secs

     total energy              =    -241.31360832 Ry
     estimated scf accuracy    <       0.00001102 Ry

     total magnetization       =     2.65 Bohr mag/cell
     absolute magnetization    =     2.92 Bohr mag/cell

     iteration # 15     ecut=    60.00 Ry     beta= 0.70
     Davidson diagonalization with overlap

---- Real-time Memory Report at c_bands before calling an iterative solver
            65 MiB given to the printing process from OS
             0 MiB allocation reported by mallinfo(arena+hblkhd)
           304 MiB available memory on the node where the printing process lives
------------------
     ethr =  1.81E-09,  avg # of iterations =  1.0

     total cpu time spent up to now is       64.3 secs

     total energy              =    -241.31360834 Ry
     estimated scf accuracy    <       0.00000093 Ry

     total magnetization       =     2.65 Bohr mag/cell
     absolute magnetization    =     2.92 Bohr mag/cell

     iteration # 16     ecut=    60.00 Ry     beta= 0.70
     Davidson diagonalization with overlap

---- Real-time Memory Report at c_bands before calling an iterative solver
            65 MiB given to the printing process from OS
             0 MiB allocation reported by mallinfo(arena+hblkhd)
           304 MiB available memory on the node where the printing process lives
------------------
     ethr =  1.81E-09,  avg # of iterations =  1.0

     total cpu time spent up to now is       68.4 secs

     total energy              =    -241.31360842 Ry
     estimated scf accuracy    <       0.00000015 Ry

     total magnetization       =     2.65 Bohr mag/cell
     absolute magnetization    =     2.92 Bohr mag/cell

     iteration # 17     ecut=    60.00 Ry     beta= 0.70
     Davidson diagonalization with overlap

---- Real-time Memory Report at c_bands before calling an iterative solver
            65 MiB given to the printing process from OS
             0 MiB allocation reported by mallinfo(arena+hblkhd)
           304 MiB available memory on the node where the printing process lives
------------------
     ethr =  9.57E-10,  avg # of iterations =  1.0

     total cpu time spent up to now is       72.4 secs

     total energy              =    -241.31360842 Ry
     estimated scf accuracy    <          5.6E-09 Ry

     total magnetization       =     2.65 Bohr mag/cell
     absolute magnetization    =     2.92 Bohr mag/cell

     iteration # 18     ecut=    60.00 Ry     beta= 0.70
     Davidson diagonalization with overlap

---- Real-time Memory Report at c_bands before calling an iterative solver
            65 MiB given to the printing process from OS
             0 MiB allocation reported by mallinfo(arena+hblkhd)
           304 MiB available memory on the node where the printing process lives
------------------
     ethr =  3.51E-11,  avg # of iterations =  1.0

     total cpu time spent up to now is       76.2 secs

     total energy              =    -241.31360843 Ry
     estimated scf accuracy    <          3.6E-12 Ry

     total magnetization       =     2.65 Bohr mag/cell
     absolute magnetization    =     2.92 Bohr mag/cell

     iteration # 19     ecut=    60.00 Ry     beta= 0.70
     Davidson diagonalization with overlap

---- Real-time Memory Report at c_bands before calling an iterative solver
            65 MiB given to the printing process from OS
             0 MiB allocation reported by mallinfo(arena+hblkhd)
           304 MiB available memory on the node where the printing process lives
------------------
     ethr =  1.00E-13,  avg # of iterations =  1.5

     total cpu time spent up to now is       80.3 secs

     total energy              =    -241.31360842 Ry
     estimated scf accuracy    <          1.6E-11 Ry

     total magnetization       =     2.65 Bohr mag/cell
     absolute magnetization    =     2.92 Bohr mag/cell

     iteration # 20     ecut=    60.00 Ry     beta= 0.70
     Davidson diagonalization with overlap

---- Real-time Memory Report at c_bands before calling an iterative solver
            65 MiB given to the printing process from OS
             0 MiB allocation reported by mallinfo(arena+hblkhd)
           304 MiB available memory on the node where the printing process lives
------------------
     ethr =  1.00E-13,  avg # of iterations =  1.4

     total cpu time spent up to now is       84.3 secs

     total energy              =    -241.31360842 Ry
     estimated scf accuracy    <          7.9E-12 Ry

     total magnetization       =     2.65 Bohr mag/cell
     absolute magnetization    =     2.92 Bohr mag/cell

     iteration # 21     ecut=    60.00 Ry     beta= 0.70
     Davidson diagonalization with overlap

---- Real-time Memory Report at c_bands before calling an iterative solver
            65 MiB given to the printing process from OS
             0 MiB allocation reported by mallinfo(arena+hblkhd)
           304 MiB available memory on the node where the printing process lives
------------------
     ethr =  1.00E-13,  avg # of iterations =  1.0

     total cpu time spent up to now is       88.1 secs

     total energy              =    -241.31360842 Ry
     estimated scf accuracy    <          2.9E-12 Ry

     total magnetization       =     2.65 Bohr mag/cell
     absolute magnetization    =     2.92 Bohr mag/cell

     iteration # 22     ecut=    60.00 Ry     beta= 0.70
     Davidson diagonalization with overlap

---- Real-time Memory Report at c_bands before calling an iterative solver
            65 MiB given to the printing process from OS
             0 MiB allocation reported by mallinfo(arena+hblkhd)
           307 MiB available memory on the node where the printing process lives
------------------
     ethr =  1.00E-13,  avg # of iterations =  1.0

     Magnetic moment per site  (integrated on atomic sphere of radius R)
     atom   1 (R=0.357)  charge= 14.3964  magn=  2.7768

     total cpu time spent up to now is       92.0 secs

     End of self-consistent calculation

 ------ SPIN UP ------------


          k = 0.0000 0.0000 0.0000 (   627 PWs)   bands (ev):

   -73.8127 -38.7997 -38.7997 -38.7997   9.3796  14.8938  14.8938  14.8938
    16.1659  16.1659  42.9004  42.9004

     occupation numbers 
     1.0000   1.0000   1.0000   1.0000   1.0000   1.0000   1.0000   1.0000
     1.0000   1.0000   0.0000   0.0000

          k = 0.0000-0.0769 0.0769 (   617 PWs)   bands (ev):

   -73.8042 -38.8156 -38.8036 -38.7948   9.6277  14.8440  14.9164  15.0515
    16.1361  16.2204  41.5487  42.6031

     occupation numbers 
     1.0000   1.0000   1.0000   1.0000   1.0000   1.0000   1.0000   1.0000
     1.0000   1.0000   0.0000   0.0000

          k = 0.0000-0.1538 0.1538 (   621 PWs)   bands (ev):

   -73.7944 -38.8776 -38.8243 -38.7964  10.3336  14.6630  14.8936  15.4122
    16.0230  16.1963  38.4938  41.4404

     occupation numbers 
     1.0000   1.0000   1.0000   1.0000   1.0000   1.0000   1.0000   1.0000
     1.0000   1.0000   0.0000   0.0000

          k = 0.0000-0.2308 0.2308 (   627 PWs)   bands (ev):

   -73.7806 -38.9622 -38.8561 -38.7983  11.3522  14.4115  14.8625  15.9601
    15.9762  16.2189  34.8654  39.7742

     occupation numbers 
     1.0000   1.0000   1.0000   1.0000   1.0000   1.0000   1.0000   1.0000
     1.0000   1.0000   0.0000   0.0000

          k = 0.0000-0.3077 0.3077 (   622 PWs)   bands (ev):

   -73.7609 -39.0452 -38.8813 -38.7994  12.2455  14.1912  15.2764  16.0549
    16.2978  16.6558  31.2274  38.2368

     occupation numbers 
     1.0000   1.0000   1.0000   1.0000   1.0000   1.0000   1.0000   1.0000
     1.0000   1.0000   0.0000   0.0000

          k = 0.0000-0.3846 0.3846 (   620 PWs)   bands (ev):

   -73.7452 -39.1162 -38.9048 -38.7963  12.5378  14.0156  16.0733  16.3799
    16.7174  17.2166  27.9172  37.1084

     occupation numbers 
     1.0000   1.0000   1.0000   1.0000   1.0000   1.0000   1.0000   1.0000
     1.0000   1.0000   0.0000   0.0000

          k = 0.0000-0.4615 0.4615 (   618 PWs)   bands (ev):

   -73.7365 -39.1570 -38.9165 -38.7964  12.5448  13.9237  16.1750  16.4110
    17.5459  18.1889  25.5455  36.5144

     occupation numbers 
     1.0000   1.0000   1.0000   1.0000   1.0000   1.0000   1.0000   1.0000
     1.0000   0.2222   0.0000   0.0000

          k =-0.0769-0.0769 0.1538 (   627 PWs)   bands (ev):

   -73.8006 -38.8648 -38.8140 -38.8019  10.1046  14.7607  14.8028  15.2975
    16.0062  16.2053  39.8077  40.8893

     occupation numbers 
     1.0000   1.0000   1.0000   1.0000   1.0000   1.0000   1.0000   1.0000
     1.0000   1.0000   0.0000   0.0000

          k =-0.0769-0.1538 0.2308 (   623 PWs)   bands (ev):

   -73.7852 -38.9287 -38.8355 -38.8071  10.9855  14.5616  14.7396  15.8327
    15.9307  16.2394  36.7580  39.0963

     occupation numbers 
     1.0000   1.0000   1.0000   1.0000   1.0000   1.0000   1.0000   1.0000
     1.0000   1.0000   0.0000   0.0000

          k =-0.0769-0.2308 0.3077 (   618 PWs)   bands (ev):

   -73.7661 -39.0074 -38.8649 -38.8057  12.0141  14.3277  14.7983  15.9729
    16.3112  16.5569  33.1450  37.6161

     occupation numbers 
     1.0000   1.0000   1.0000   1.0000   1.0000   1.0000   1.0000   1.0000
     1.0000   1.0000   0.0000   0.0000

          k =-0.0769-0.3077 0.3846 (   622 PWs)   bands (ev):

   -73.7515 -39.0864 -38.8967 -38.8045  12.5874  14.1078  15.3886  16.1149
    16.4578  17.3562  29.6087  36.4241

     occupation numbers 
     1.0000   1.0000   1.0000   1.0000   1.0000   1.0000   1.0000   1.0000
     1.0000   1.0000   0.0000   0.0000

          k =-0.0769-0.3846 0.4615 (   622 PWs)   bands (ev):

   -73.7402 -39.1374 -38.9203 -38.8044  12.6596  13.9642  15.9924  16.2032
    16.8759  18.4916  26.6081  35.6370

     occupation numbers 
     1.0000   1.0000   1.0000   1.0000   1.0000   1.0000   1.0000   1.0000
     1.0000   0.0000   0.0000   0.0000

          k =-0.0769 0.5385-0.4615 (   624 PWs)   bands (ev):

   -73.7371 -39.1556 -38.9300 -38.8066  12.6450  13.9043  16.1533  16.1674
    17.1362  19.3150  25.1752  35.3580

     occupation numbers 
     1.0000   1.0000   1.0000   1.0000   1.0000   1.0000   1.0000   1.0000
     1.0000   0.0000   0.0000   0.0000

          k =-0.1538-0.1538 0.3077 (   622 PWs)   bands (ev):

   -73.7704 -38.9916 -38.8573 -38.8190  11.9326  14.4670  14.4899  15.8703
    16.3109  16.5851  34.8825  35.9073

     occupation numbers 
     1.0000   1.0000   1.0000   1.0000   1.0000   1.0000   1.0000   1.0000
     1.0000   1.0000   0.0000   0.0000

          k =-0.1538-0.2308 0.3846 (   623 PWs)   bands (ev):

   -73.7551 -39.0599 -38.8904 -38.8205  12.7619  14.2133  14.6212  15.9801
    16.4323  17.5162  31.6556  34.1781

     occupation numbers 
     1.0000   1.0000   1.0000   1.0000   1.0000   1.0000   1.0000   1.0000
     1.0000   1.0000   0.0000   0.0000

          k =-0.1538-0.3077 0.4615 (   620 PWs)   bands (ev):

   -73.7408 -39.1070 -38.9242 -38.8199  13.0018  14.0496  15.1290  16.1342
    16.6050  18.8810  28.3155  33.1787

     occupation numbers 
     1.0000   1.0000   1.0000   1.0000   1.0000   1.0000   1.0000   1.0000
     1.0000   0.0000   0.0000   0.0000

          k =-0.1538 0.6154-0.4615 (   612 PWs)   bands (ev):

   -73.7301 -39.1274 -38.9424 -38.8185  12.9781  13.9802  15.5108  16.2142
    16.8601  20.4053  25.7572  32.6564

     occupation numbers 
     1.0000   1.0000   1.0000   1.0000   1.0000   1.0000   1.0000   1.0000
     1.0000   0.0000   0.0000   0.0000

          k =-0.2308-0.2308 0.4615 (   623 PWs)   bands (ev):

   -73.7426 -39.0910 -38.9308 -38.8304  13.2959  14.0584  14.6448  16.0625
    16.5349  18.9946  30.1899  30.9763

     occupation numbers 
     1.0000   1.0000   1.0000   1.0000   1.0000   1.0000   1.0000   1.0000
     1.0000   0.0000   0.0000   0.0000

          k =-0.2308 0.6923-0.4615 (   613 PWs)   bands (ev):

   -73.7296 -39.0991 -38.9655 -38.8321  13.3990  14.0209  14.8364  16.2341
    16.6778  20.9068  27.3156  29.9230

     occupation numbers 
     1.0000   1.0000   1.0000   1.0000   1.0000   1.0000   1.0000   1.0000
     1.0000   0.0000   0.0000   0.0000

          k =-0.2308 0.6154-0.3846 (   612 PWs)   bands (ev):

   -73.7259 -39.1022 -38.9819 -38.8320  13.3627  14.0393  14.9082  16.3024
    16.7414  22.3246  25.4640  29.6462

     occupation numbers 
     1.0000   1.0000   1.0000   1.0000   1.0000   1.0000   1.0000   1.0000
     1.0000   0.0000   0.0000   0.0000

          k =-0.3077 0.6923-0.3846 (   620 PWs)   bands (ev):

   -73.7278 -39.0775 -39.0205 -38.8379  13.5840  14.1020  14.5024  16.4181
    16.5965  23.2275  25.9588  27.7212

     occupation numbers 
     1.0000   1.0000   1.0000   1.0000   1.0000   1.0000   1.0000   1.0000
     1.0000   0.0000   0.0000   0.0000

          k = 0.0000 0.0000 0.1538 (   623 PWs)   bands (ev):

   -73.8027 -38.8299 -38.8099 -38.8099   9.8692  14.9011  14.9011  15.0495
    16.0009  16.2426  40.8070  42.4149

     occupation numbers 
     1.0000   1.0000   1.0000   1.0000   1.0000   1.0000   1.0000   1.0000
     1.0000   1.0000   0.0000   0.0000

          k = 0.0000-0.0769 0.2308 (   621 PWs)   bands (ev):

   -73.7904 -38.8778 -38.8290 -38.8177  10.5620  14.7848  14.9155  15.3939
    15.7875  16.3245  38.5141  40.9366

     occupation numbers 
     1.0000   1.0000   1.0000   1.0000   1.0000   1.0000   1.0000   1.0000
     1.0000   1.0000   0.0000   0.0000

          k = 0.0000-0.1538 0.3077 (   618 PWs)   bands (ev):

   -73.7731 -38.9570 -38.8570 -38.8150  11.5571  14.5748  14.8495  15.7625
    15.9623  16.4353  35.0460  39.2693

     occupation numbers 
     1.0000   1.0000   1.0000   1.0000   1.0000   1.0000   1.0000   1.0000
     1.0000   1.0000   0.0000   0.0000

          k = 0.0000-0.2308 0.3846 (   619 PWs)   bands (ev):

   -73.7562 -39.0413 -38.8887 -38.8136  12.4193  14.3372  14.9896  15.9429
    16.6281  16.6812  31.4039  37.8755

     occupation numbers 
     1.0000   1.0000   1.0000   1.0000   1.0000   1.0000   1.0000   1.0000
     1.0000   1.0000   0.0000   0.0000

          k = 0.0000-0.3077 0.4615 (   619 PWs)   bands (ev):

   -73.7418 -39.1134 -38.9141 -38.8085  12.6786  14.1538  15.4338  16.1382
    17.1932  17.6100  28.0581  36.8696

     occupation numbers 
     1.0000   1.0000   1.0000   1.0000   1.0000   1.0000   1.0000   1.0000
     1.0000   1.0000   0.0000   0.0000

          k = 0.0000-0.3846 0.5385 (   618 PWs)   bands (ev):

   -73.7335 -39.1519 -38.9290 -38.8076  12.6712  14.0594  15.7391  16.1114
    17.5305  19.0084  25.6077  36.3375

     occupation numbers 
     1.0000   1.0000   1.0000   1.0000   1.0000   1.0000   1.0000   1.0000
     1.0000   0.0000   0.0000   0.0000

          k =-0.0769-0.0769 0.3077 (   622 PWs)   bands (ev):

   -73.7775 -38.9344 -38.8517 -38.8311  11.3932  14.7642  14.7886  15.6032
    15.7828  16.4678  36.6732  37.9841

     occupation numbers 
     1.0000   1.0000   1.0000   1.0000   1.0000   1.0000   1.0000   1.0000
     1.0000   1.0000   0.0000   0.0000

          k =-0.0769-0.1538 0.3846 (   615 PWs)   bands (ev):

   -73.7580 -39.0038 -38.8833 -38.8289  12.3496  14.5169  14.7262  15.7040
    16.3853  16.8274  33.4760  36.0343

     occupation numbers 
     1.0000   1.0000   1.0000   1.0000   1.0000   1.0000   1.0000   1.0000
     1.0000   1.0000   0.0000   0.0000

          k =-0.0769-0.2308 0.4615 (   620 PWs)   bands (ev):

   -73.7444 -39.0783 -38.9149 -38.8297  12.8792  14.3209  14.8539  15.9356
    16.7472  17.7851  29.9414  34.8156

     occupation numbers 
     1.0000   1.0000   1.0000   1.0000   1.0000   1.0000   1.0000   1.0000
     1.0000   1.0057   0.0000   0.0000

          k =-0.0769-0.3077 0.5385 (   622 PWs)   bands (ev):

   -73.7344 -39.1293 -38.9398 -38.8283  12.9139  14.2139  15.1050  16.0321
    17.1695  19.3032  26.8445  34.0194

     occupation numbers 
     1.0000   1.0000   1.0000   1.0000   1.0000   1.0000   1.0000   1.0000
     1.0000   0.0000   0.0000   0.0000

          k =-0.0769 0.6154-0.3846 (   616 PWs)   bands (ev):

   -73.7278 -39.1445 -38.9458 -38.8247  12.8877  14.1900  15.2501  16.0491
    17.3715  20.3819  25.2778  33.7432

     occupation numbers 
     1.0000   1.0000   1.0000   1.0000   1.0000   1.0000   1.0000   1.0000
     1.0000   0.0000   0.0000   0.0000

          k =-0.1538 0.1538 0.1538 (   616 PWs)   bands (ev):

   -73.7857 -38.9174 -38.8107 -38.8107  10.7822  14.6289  14.6289  15.8508
    16.1199  16.1199  38.3215  38.3215

     occupation numbers 
     1.0000   1.0000   1.0000   1.0000   1.0000   1.0000   1.0000   1.0000
     1.0000   1.0000   0.0000   0.0000

          k =-0.1538-0.1538 0.4615 (   624 PWs)   bands (ev):

   -73.7469 -39.0634 -38.9194 -38.8400  13.0373  14.1912  14.7496  15.8111
    16.5896  17.8543  31.8687  32.6166

     occupation numbers 
     1.0000   1.0000   1.0000   1.0000   1.0000   1.0000   1.0000   1.0000
     1.0000   1.0284   0.0000   0.0000

          k =-0.1538-0.2308 0.5385 (   617 PWs)   bands (ev):

   -73.7318 -39.0977 -38.9547 -38.8405  13.3316  14.0958  14.7618  16.0215
    16.8212  19.5433  28.7609  31.3275

     occupation numbers 
     1.0000   1.0000   1.0000   1.0000   1.0000   1.0000   1.0000   1.0000
     1.0000   0.0000   0.0000   0.0000

          k =-0.1538 0.6923-0.3846 (   614 PWs)   bands (ev):

   -73.7236 -39.1165 -38.9772 -38.8400  13.2781  14.2106  14.7173  16.1400
    17.0608  21.4237  26.0062  30.7759

     occupation numbers 
     1.0000   1.0000   1.0000   1.0000   1.0000   1.0000   1.0000   1.0000
     1.0000   0.0000   0.0000   0.0000

          k =-0.2308 0.2308 0.1538 (   619 PWs)   bands (ev):

   -73.7725 -38.9888 -38.8424 -38.8125  11.7743  14.3670  14.4826  16.0689
    16.2007  16.5545  35.0628  36.8752

     occupation numbers 
     1.0000   1.0000   1.0000   1.0000   1.0000   1.0000   1.0000   1.0000
     1.0000   1.0000   0.0000   0.0000

          k =-0.2308 0.7692-0.3846 (   615 PWs)   bands (ev):

   -73.7227 -39.0947 -39.0038 -38.8437  13.6965  13.9067  14.5393  16.2744
    16.8461  21.7213  27.4531  28.6139

     occupation numbers 
     1.0000   1.0000   1.0000   1.0000   1.0000   1.0000   1.0000   1.0000
     1.0000   0.0000   0.0000   0.0000

          k =-0.2308 0.6923-0.3077 (   614 PWs)   bands (ev):

   -73.7195 -39.0867 -39.0296 -38.8437  13.7087  14.1109  14.2719  16.4505
    16.8113  23.5705  25.5204  28.0572

     occupation numbers 
     1.0000   1.0000   1.0000   1.0000   1.0000   1.0000   1.0000   1.0000
     1.0000   0.0000   0.0000   0.0000

          k =-0.3077 0.3077 0.1538 (   623 PWs)   bands (ev):

   -73.7583 -39.0598 -38.8776 -38.8153  12.6456  14.1277  14.6673  16.1180
    16.3021  17.4261  31.5026  35.6494

     occupation numbers 
     1.0000   1.0000   1.0000   1.0000   1.0000   1.0000   1.0000   1.0000
     1.0000   1.0000   0.0000   0.0000

          k =-0.3077 0.2308 0.2308 (   626 PWs)   bands (ev):

   -73.7618 -39.0501 -38.8625 -38.8311  12.7233  14.1971  14.2371  16.1159
    16.2649  17.4640  33.3293  34.1040

     occupation numbers 
     1.0000   1.0000   1.0000   1.0000   1.0000   1.0000   1.0000   1.0000
     1.0000   1.0000   0.0000   0.0000

          k =-0.3846 0.3846 0.1538 (   624 PWs)   bands (ev):

   -73.7453 -39.1099 -38.9113 -38.8185  12.8826  13.9515  15.4672  16.1892
    16.3554  18.6556  28.1648  34.7591

     occupation numbers 
     1.0000   1.0000   1.0000   1.0000   1.0000   1.0000   1.0000   1.0000
     1.0000   0.0000   0.0000   0.0000

          k =-0.3846 0.3077 0.2308 (   622 PWs)   bands (ev):

   -73.7470 -39.0870 -38.9001 -38.8364  13.2721  14.0101  14.5398  16.1924
    16.3652  18.7891  30.1800  32.6873

     occupation numbers 
     1.0000   1.0000   1.0000   1.0000   1.0000   1.0000   1.0000   1.0000
     1.0000   0.0000   0.0000   0.0000

          k = 0.5385-0.5385 0.1538 (   621 PWs)   bands (ev):

   -73.7366 -39.1352 -38.9302 -38.8190  12.8526  13.8531  16.1540  16.2463
    16.4079  20.0018  25.6677  34.2853

     occupation numbers 
     1.0000   1.0000   1.0000   1.0000   1.0000   1.0000   1.0000   1.0000
     1.0000   0.0000   0.0000   0.0000

          k = 0.5385-0.6154 0.2308 (   624 PWs)   bands (ev):

   -73.7384 -39.1094 -38.9354 -38.8410  13.2275  13.8882  15.1983  16.2720
    16.4268  20.4368  27.0685  31.9465

     occupation numbers 
     1.0000   1.0000   1.0000   1.0000   1.0000   1.0000   1.0000   1.0000
     1.0000   0.0000   0.0000   0.0000

          k = 0.5385-0.6923 0.3077 (   618 PWs)   bands (ev):

   -73.7362 -39.0902 -38.9388 -38.8487  13.5285  13.9991  14.6184  16.2908
    16.4670  20.5734  28.8597  29.7304

     occupation numbers 
     1.0000   1.0000   1.0000   1.0000   1.0000   1.0000   1.0000   1.0000
     1.0000   0.0000   0.0000   0.0000

          k = 0.4615-0.5385 0.2308 (   618 PWs)   bands (ev):

   -73.7326 -39.1122 -38.9485 -38.8392  13.1921  13.8527  15.4827  16.3178
    16.4901  21.6181  25.3935  31.6934

     occupation numbers 
     1.0000   1.0000   1.0000   1.0000   1.0000   1.0000   1.0000   1.0000
     1.0000   0.0000   0.0000   0.0000

          k = 0.4615-0.6154 0.3077 (   617 PWs)   bands (ev):

   -73.7305 -39.0784 -38.9771 -38.8537  13.5149  14.0102  14.8075  16.3773
    16.5020  22.6121  26.2717  28.9393

     occupation numbers 
     1.0000   1.0000   1.0000   1.0000   1.0000   1.0000   1.0000   1.0000
     1.0000   0.0000   0.0000   0.0000

          k = 0.3846-0.6154 0.3846 (   619 PWs)   bands (ev):

   -73.7294 -39.0325 -39.0325 -38.8581  13.5823  14.3699  14.3699  16.4567
    16.4567  24.9105  24.9105  27.4094

     occupation numbers 
     1.0000   1.0000   1.0000   1.0000   1.0000   1.0000   1.0000   1.0000
     1.0000   0.0000   0.0000   0.0000

          k = 0.0000 0.0000 0.3077 (   615 PWs)   bands (ev):

   -73.7770 -38.8899 -38.8500 -38.8500  11.2063  15.0332  15.0332  15.3931
    15.4224  16.5196  38.1023  39.7788

     occupation numbers 
     1.0000   1.0000   1.0000   1.0000   1.0000   1.0000   1.0000   1.0000
     1.0000   1.0000   0.0000   0.0000

          k = 0.0000-0.0769 0.3846 (   609 PWs)   bands (ev):

   -73.7592 -38.9510 -38.8787 -38.8539  12.1064  14.8222  14.9420  15.4137
    15.8995  16.8222  35.5369  38.0935

     occupation numbers 
     1.0000   1.0000   1.0000   1.0000   1.0000   1.0000   1.0000   1.0000
     1.0000   1.0000   0.0000   0.0000

          k = 0.0000-0.1538 0.4615 (   624 PWs)   bands (ev):

   -73.7488 -39.0376 -38.9124 -38.8591  12.8393  14.5145  14.7373  15.6878
    16.5230  17.3525  31.9110  36.5595

     occupation numbers 
     1.0000   1.0000   1.0000   1.0000   1.0000   1.0000   1.0000   1.0000
     1.0000   1.0000   0.0000   0.0000

          k = 0.0000-0.2308 0.5385 (   618 PWs)   bands (ev):

   -73.7327 -39.0995 -38.9365 -38.8533  13.0443  14.5815  14.5941  15.8753
    17.1416  18.7480  28.4938  35.3606

     occupation numbers 
     1.0000   1.0000   1.0000   1.0000   1.0000   1.0000   1.0000   1.0000
     1.0000   0.0000   0.0000   0.0000

          k = 0.0000-0.3077 0.6154 (   625 PWs)   bands (ev):

   -73.7281 -39.1389 -38.9560 -38.8525  12.9850  14.4698  14.7590  15.8824
    17.4392  20.4515  25.8291  34.6735

     occupation numbers 
     1.0000   1.0000   1.0000   1.0000   1.0000   1.0000   1.0000   1.0000
     1.0000   0.0000   0.0000   0.0000

          k =-0.0769-0.0769 0.4615 (   614 PWs)   bands (ev):

   -73.7457 -39.0071 -38.9104 -38.8725  12.8479  14.4228  15.0499  15.4965
    16.3376  17.3521  33.8887  34.6236

     occupation numbers 
     1.0000   1.0000   1.0000   1.0000   1.0000   1.0000   1.0000   1.0000
     1.0000   1.0000   0.0000   0.0000

          k =-0.0769-0.1538 0.5385 (   619 PWs)   bands (ev):

   -73.7331 -39.0676 -38.9467 -38.8745  13.2841  14.1101  14.9285  15.7844
    16.7768  18.6471  30.5745  33.0890

     occupation numbers 
     1.0000   1.0000   1.0000   1.0000   1.0000   1.0000   1.0000   1.0000
     1.0000   0.0000   0.0000   0.0000

          k =-0.0769-0.2308 0.6154 (   615 PWs)   bands (ev):

   -73.7210 -39.1097 -38.9693 -38.8700  13.2625  14.2180  14.7752  15.9563
    17.1962  20.5396  27.3582  32.2572

     occupation numbers 
     1.0000   1.0000   1.0000   1.0000   1.0000   1.0000   1.0000   1.0000
     1.0000   0.0000   0.0000   0.0000

          k =-0.0769 0.6923-0.3077 (   618 PWs)   bands (ev):

   -73.7184 -39.1270 -38.9801 -38.8690  13.1824  14.3322  14.6607  15.9857
    17.3839  21.9440  25.5053  31.9578

     occupation numbers 
     1.0000   1.0000   1.0000   1.0000   1.0000   1.0000   1.0000   1.0000
     1.0000   0.0000   0.0000   0.0000

          k =-0.1538-0.1538 0.6154 (   618 PWs)   bands (ev):

   -73.7212 -39.0912 -38.9897 -38.8766  13.6127  13.7697  14.8491  16.0884
    16.9324  20.5504  29.2345  29.9686

     occupation numbers 
     1.0000   1.0000   1.0000   1.0000   1.0000   1.0000   1.0000   1.0000
     1.0000   0.0000   0.0000   0.0000

          k =-0.1538 0.7692-0.3077 (   615 PWs)   bands (ev):

   -73.7134 -39.0996 -39.0175 -38.8763  13.5105  13.9065  14.6412  16.3470
    17.0928  22.7887  26.5020  29.1460

     occupation numbers 
     1.0000   1.0000   1.0000   1.0000   1.0000   1.0000   1.0000   1.0000
     1.0000   0.0000   0.0000   0.0000

          k =-0.2308 0.7692-0.2308 (   622 PWs)   bands (ev):

   -73.7137 -39.0684 -39.0684 -38.8823  13.7078  13.7078  14.4978  16.7646
    16.7646  25.1719  25.1719  27.4718

     occupation numbers 
     1.0000   1.0000   1.0000   1.0000   1.0000   1.0000   1.0000   1.0000
     1.0000   0.0000   0.0000   0.0000

          k =-0.3077 0.3077 0.3077 (   619 PWs)   bands (ev):

   -73.7478 -39.0761 -38.8665 -38.8665  13.6102  14.0105  14.0105  16.2863
    16.2863  18.8143  32.1078  32.1078

     occupation numbers 
     1.0000   1.0000   1.0000   1.0000   1.0000   1.0000   1.0000   1.0000
     1.0000   0.0000   0.0000   0.0000

          k = 0.6154-0.6154 0.3077 (   623 PWs)   bands (ev):

   -73.7399 -39.0884 -38.9135 -38.8732  13.7047  13.8850  14.5046  16.3169
    16.3415  20.4623  29.0549  31.2546

     occupation numbers 
     1.0000   1.0000   1.0000   1.0000   1.0000   1.0000   1.0000   1.0000
     1.0000   0.0000   0.0000   0.0000

          k = 0.5385-0.5385 0.3077 (   621 PWs)   bands (ev):

   -73.7335 -39.0815 -38.9489 -38.8752  13.5640  13.8380  14.9766  16.3655
    16.4163  22.3676  26.2562  30.8277

     occupation numbers 
     1.0000   1.0000   1.0000   1.0000   1.0000   1.0000   1.0000   1.0000
     1.0000   0.0000   0.0000   0.0000

          k = 0.5385-0.6154 0.3846 (   622 PWs)   bands (ev):

   -73.7338 -39.0628 -38.9500 -38.8951  13.7593  13.9952  14.5372  16.3643
    16.4233  22.5354  27.9269  28.8274

     occupation numbers 
     1.0000   1.0000   1.0000   1.0000   1.0000   1.0000   1.0000   1.0000
     1.0000   0.0000   0.0000   0.0000

          k = 0.4615-0.5385 0.3846 (   626 PWs)   bands (ev):

   -73.7335 -39.0396 -38.9836 -38.9023  13.7345  14.0591  14.5421  16.3867
    16.4376  24.3463  25.9606  28.3210

     occupation numbers 
     1.0000   1.0000   1.0000   1.0000   1.0000   1.0000   1.0000   1.0000
     1.0000   0.0000   0.0000   0.0000

          k = 0.0000 0.0000 0.4615 (   615 PWs)   bands (ev):

   -73.7475 -38.9676 -38.9088 -38.9088  12.7665  14.5568  15.3106  15.3106
    15.9626  17.2813  36.1405  36.1674

     occupation numbers 
     1.0000   1.0000   1.0000   1.0000   1.0000   1.0000   1.0000   1.0000
     1.0000   1.0000   0.0000   0.0000

          k = 0.0000-0.0769 0.5385 (   618 PWs)   bands (ev):

   -73.7331 -39.0235 -38.9415 -38.9193  13.2488  14.0935  15.3316  15.6027
    16.4397  18.2870  32.6836  34.5035

     occupation numbers 
     1.0000   1.0000   1.0000   1.0000   1.0000   1.0000   1.0000   1.0000
     1.0000   0.0275   0.0000   0.0000

          k = 0.0000-0.1538 0.6154 (   616 PWs)   bands (ev):

   -73.7193 -39.0805 -38.9689 -38.9115  13.3290  13.8915  15.2275  15.8446
    17.0559  19.9859  29.2180  33.2191

     occupation numbers 
     1.0000   1.0000   1.0000   1.0000   1.0000   1.0000   1.0000   1.0000
     1.0000   0.0000   0.0000   0.0000

          k = 0.0000-0.2308 0.6923 (   620 PWs)   bands (ev):

   -73.7136 -39.1177 -38.9859 -38.9062  13.1880  13.9167  15.1650  15.9266
    17.3972  22.0517  26.3028  32.5046

     occupation numbers 
     1.0000   1.0000   1.0000   1.0000   1.0000   1.0000   1.0000   1.0000
     1.0000   0.0000   0.0000   0.0000

          k =-0.0769-0.0769 0.6154 (   622 PWs)   bands (ev):

   -73.7210 -39.0593 -38.9805 -38.9322  13.4240  13.6859  15.4189  15.8974
    16.7962  19.8171  31.2130  31.6307

     occupation numbers 
     1.0000   1.0000   1.0000   1.0000   1.0000   1.0000   1.0000   1.0000
     1.0000   0.0000   0.0000   0.0000

          k =-0.0769-0.1538 0.6923 (   624 PWs)   bands (ev):

   -73.7120 -39.0927 -39.0089 -38.9311  13.3174  13.5583  15.3368  16.1965
    17.1475  21.9167  28.1325  30.5569

     occupation numbers 
     1.0000   1.0000   1.0000   1.0000   1.0000   1.0000   1.0000   1.0000
     1.0000   0.0000   0.0000   0.0000

          k =-0.0769 0.7692-0.2308 (   621 PWs)   bands (ev):

   -73.7071 -39.1053 -39.0178 -38.9263  13.2186  13.5801  15.3139  16.2899
    17.3230  23.7235  25.9500  30.2293

     occupation numbers 
     1.0000   1.0000   1.0000   1.0000   1.0000   1.0000   1.0000   1.0000
     1.0000   0.0000   0.0000   0.0000

          k =-0.1538 0.8462-0.2308 (   622 PWs)   bands (ev):

   -73.7050 -39.0844 -39.0493 -38.9310  13.3050  13.3703  15.2958  16.6911
    17.1046  24.2918  27.0064  28.0981

     occupation numbers 
     1.0000   1.0000   1.0000   1.0000   1.0000   1.0000   1.0000   1.0000
     1.0000   0.0000   0.0000   0.0000

          k = 0.5385-0.5385 0.4615 (   625 PWs)   bands (ev):

   -73.7326 -39.0218 -38.9518 -38.9518  14.0206  14.0206  14.3199  16.4112
    16.4112  24.8256  27.4570  27.4570

     occupation numbers 
     1.0000   1.0000   1.0000   1.0000   1.0000   1.0000   1.0000   1.0000
     1.0000   0.0000   0.0000   0.0000

          k = 0.0000 0.0000 0.6154 (   619 PWs)   bands (ev):

   -73.7190 -39.0191 -38.9759 -38.9759  13.3591  13.6778  15.8498  15.8498
    16.5141  19.5909  32.7053  32.7053

     occupation numbers 
     1.0000   1.0000   1.0000   1.0000   1.0000   1.0000   1.0000   1.0000
     1.0000   0.0000   0.0000   0.0000

          k = 0.0000-0.0769 0.6923 (   621 PWs)   bands (ev):

[...]
     0.0000   0.0000   0.0000   0.0000

          k =-0.1538-0.1538 0.4615 (   624 PWs)   bands (ev):

   -68.7447 -33.8878 -33.7053 -33.6058  14.0148  17.4115  17.8260  19.8805
    20.8763  21.6286  33.2559  33.5512

     occupation numbers 
     1.0000   1.0000   1.0000   1.0000   1.0000   1.0000   1.0159   0.0000
     0.0000   0.0000   0.0000   0.0000

          k =-0.1538-0.2308 0.5385 (   617 PWs)   bands (ev):

   -68.7274 -33.9320 -33.7502 -33.6070  15.1039  17.1045  17.6861  20.1147
    21.1198  22.6572  30.3130  32.4115

     occupation numbers 
     1.0000   1.0000   1.0000   1.0000   1.0000   1.0000   1.0002   0.0000
     0.0000   0.0000   0.0000   0.0000

          k =-0.1538 0.6923-0.3846 (   614 PWs)   bands (ev):

   -68.7181 -33.9558 -33.7786 -33.6067  15.6751  17.1574  17.4569  20.2864
    21.2923  23.8475  27.9773  31.8244

     occupation numbers 
     1.0000   1.0000   1.0000   1.0000   1.0000   1.0000   1.0000   0.0000
     0.0000   0.0000   0.0000   0.0000

          k =-0.2308 0.2308 0.1538 (   619 PWs)   bands (ev):

   -68.7755 -33.7940 -33.6083 -33.5714  12.0409  17.6422  17.7248  20.3053
    20.5949  20.8528  36.0018  37.5083

     occupation numbers 
     1.0000   1.0000   1.0000   1.0000   1.0000   1.0000   1.0009   0.0000
     0.0000   0.0000   0.0000   0.0000

          k =-0.2308 0.7692-0.3846 (   615 PWs)   bands (ev):

   -68.7169 -33.9284 -33.8122 -33.6113  15.9947  16.8212  17.4451  20.3950
    21.0928  24.2357  29.2228  29.7665

     occupation numbers 
     1.0000   1.0000   1.0000   1.0000   1.0000   1.0000   1.0000   0.0000
     0.0000   0.0000   0.0000   0.0000

          k =-0.2308 0.6923-0.3077 (   614 PWs)   bands (ev):

   -68.7131 -33.9177 -33.8453 -33.6117  16.3675  16.9354  17.0675  20.6069
    21.0250  25.6541  27.4787  29.3084

     occupation numbers 
     1.0000   1.0000   1.0000   1.0000   1.0000   1.0000   1.0000   0.0000
     0.0000   0.0000   0.0000   0.0000

          k =-0.3077 0.3077 0.1538 (   623 PWs)   bands (ev):

   -68.7581 -33.8841 -33.6527 -33.5749  13.3452  17.3017  17.4792  20.6046
    21.0081  21.1545  32.7903  36.2862

     occupation numbers 
     1.0000   1.0000   1.0000   1.0000   1.0000   1.0000   1.0000   0.0000
     0.0000   0.0000   0.0000   0.0000

          k =-0.3077 0.2308 0.2308 (   626 PWs)   bands (ev):

   -68.7619 -33.8713 -33.6339 -33.5946  13.2173  17.3292  17.3457  20.6497
    20.9323  21.1778  34.4338  35.0030

     occupation numbers 
     1.0000   1.0000   1.0000   1.0000   1.0000   1.0000   1.0000   0.0000
     0.0000   0.0000   0.0000   0.0000

          k =-0.3846 0.3846 0.1538 (   624 PWs)   bands (ev):

   -68.7426 -33.9475 -33.6949 -33.5786  14.4847  17.0501  17.5200  20.6671
    21.1113  22.0924  29.8343  35.3589

     occupation numbers 
     1.0000   1.0000   1.0000   1.0000   1.0000   1.0000   1.0000   0.0000
     0.0000   0.0000   0.0000   0.0000

          k =-0.3846 0.3077 0.2308 (   622 PWs)   bands (ev):

   -68.7449 -33.9184 -33.6814 -33.6014  14.4706  17.0353  17.1641  20.7201
    21.0806  22.2403  31.5388  33.6484

     occupation numbers 
     1.0000   1.0000   1.0000   1.0000   1.0000   1.0000   1.0000   0.0000
     0.0000   0.0000   0.0000   0.0000

          k = 0.5385-0.5385 0.1538 (   621 PWs)   bands (ev):

   -68.7327 -33.9802 -33.7187 -33.5791  15.0128  16.9134  17.9221  20.7216
    21.1925  22.8113  27.8333  34.8502

     occupation numbers 
     1.0000   1.0000   1.0000   1.0000   1.0000   1.0000   1.0719   0.0000
     0.0000   0.0000   0.0000   0.0000

          k = 0.5385-0.6154 0.2308 (   624 PWs)   bands (ev):

   -68.7345 -33.9467 -33.7260 -33.6069  15.2999  16.8637  17.3040  20.8059
    21.1554  23.3307  28.8115  32.8810

     occupation numbers 
     1.0000   1.0000   1.0000   1.0000   1.0000   1.0000   1.0000   0.0000
     0.0000   0.0000   0.0000   0.0000

          k = 0.5385-0.6923 0.3077 (   618 PWs)   bands (ev):

   -68.7326 -33.9229 -33.7308 -33.6174  15.5044  16.8087  17.0262  20.8435
    21.1698  23.5334  30.4311  30.7631

     occupation numbers 
     1.0000   1.0000   1.0000   1.0000   1.0000   1.0000   1.0000   0.0000
     0.0000   0.0000   0.0000   0.0000

          k = 0.4615-0.5385 0.2308 (   618 PWs)   bands (ev):

   -68.7283 -33.9512 -33.7427 -33.6052  15.5090  16.8108  17.5454  20.8555
    21.2153  23.9930  27.5288  32.6071

     occupation numbers 
     1.0000   1.0000   1.0000   1.0000   1.0000   1.0000   1.0000   0.0000
     0.0000   0.0000   0.0000   0.0000

          k = 0.4615-0.6154 0.3077 (   617 PWs)   bands (ev):

   -68.7259 -33.9081 -33.7793 -33.6236  15.9886  16.7596  17.0934  20.9546
    21.1788  24.9608  28.0814  30.0948

     occupation numbers 
     1.0000   1.0000   1.0000   1.0000   1.0000   1.0000   1.0000   0.0000
     0.0000   0.0000   0.0000   0.0000

          k = 0.3846-0.6154 0.3846 (   619 PWs)   bands (ev):

   -68.7244 -33.8495 -33.8495 -33.6294  16.2790  16.8499  16.8499  21.0830
    21.0830  26.8747  26.8747  28.6721

     occupation numbers 
     1.0000   1.0000   1.0000   1.0000   1.0000   1.0000   1.0000   0.0000
     0.0000   0.0000   0.0000   0.0000

          k = 0.0000 0.0000 0.3077 (   615 PWs)   bands (ev):

   -68.7815 -33.6706 -33.6178 -33.6178  11.4055  18.4726  18.4726  19.0824
    19.6210  21.2327  38.6343  40.5732

     occupation numbers 
     1.0000   1.0000   1.0000   1.0000   1.0000   0.0000   0.0000   0.0000
     0.0000   0.0000   0.0000   0.0000

          k = 0.0000-0.0769 0.3846 (   609 PWs)   bands (ev):

   -68.7610 -33.7483 -33.6540 -33.6244  12.4619  18.3218  18.3378  19.3309
    19.6566  21.4101  36.5412  38.7549

     occupation numbers 
     1.0000   1.0000   1.0000   1.0000   1.0000   0.0103   0.0063   0.0000
     0.0000   0.0000   0.0000   0.0000

          k = 0.0000-0.1538 0.4615 (   624 PWs)   bands (ev):

   -68.7470 -33.8558 -33.6956 -33.6298  13.6959  17.7925  18.0688  19.5276
    20.4540  21.4981  33.2098  37.5051

     occupation numbers 
     1.0000   1.0000   1.0000   1.0000   1.0000   1.0070   0.8235   0.0000
     0.0000   0.0000   0.0000   0.0000

          k = 0.0000-0.2308 0.5385 (   618 PWs)   bands (ev):

   -68.7285 -33.9345 -33.7260 -33.6233  14.7869  17.4395  17.8539  19.8395
    21.2636  21.9809  30.1278  36.2097

     occupation numbers 
     1.0000   1.0000   1.0000   1.0000   1.0000   1.0000   1.0281   0.0000
     0.0000   0.0000   0.0000   0.0000

          k = 0.0000-0.3077 0.6154 (   625 PWs)   bands (ev):

   -68.7219 -33.9837 -33.7500 -33.6225  15.3417  17.4013  17.7144  19.9107
    21.7006  22.7704  27.9056  35.4235

     occupation numbers 
     1.0000   1.0000   1.0000   1.0000   1.0000   1.0000   1.0006   0.0000
     0.0000   0.0000   0.0000   0.0000

          k =-0.0769-0.0769 0.4615 (   614 PWs)   bands (ev):

   -68.7445 -33.8178 -33.6940 -33.6469  13.5628  17.9208  18.3761  19.2527
    20.2252  21.5310  35.1251  35.5242

     occupation numbers 
     1.0000   1.0000   1.0000   1.0000   1.0000   1.0711   0.0017   0.0000
     0.0000   0.0000   0.0000   0.0000

          k =-0.0769-0.1538 0.5385 (   619 PWs)   bands (ev):

   -68.7288 -33.8940 -33.7392 -33.6496  14.6986  17.3590  18.2089  19.5849
    20.8652  22.0289  31.9490  34.1125

     occupation numbers 
     1.0000   1.0000   1.0000   1.0000   1.0000   1.0000   0.1569   0.0000
     0.0000   0.0000   0.0000   0.0000

          k =-0.0769-0.2308 0.6154 (   615 PWs)   bands (ev):

   -68.7149 -33.9471 -33.7680 -33.6449  15.5305  17.0686  18.0175  19.8475
    21.3595  23.1049  29.0653  33.2286

     occupation numbers 
     1.0000   1.0000   1.0000   1.0000   1.0000   1.0000   1.0142   0.0000
     0.0000   0.0000   0.0000   0.0000

          k =-0.0769 0.6923-0.3077 (   618 PWs)   bands (ev):

   -68.7114 -33.9683 -33.7811 -33.6437  15.7823  17.0428  17.9051  19.8893
    21.6026  23.9632  27.5562  32.8882

     occupation numbers 
     1.0000   1.0000   1.0000   1.0000   1.0000   1.0000   1.0610   0.0000
     0.0000   0.0000   0.0000   0.0000

          k =-0.1538-0.1538 0.6154 (   618 PWs)   bands (ev):

   -68.7147 -33.9235 -33.7938 -33.6531  15.6250  16.9250  18.0835  19.9361
    21.0634  23.2147  30.8115  31.0199

     occupation numbers 
     1.0000   1.0000   1.0000   1.0000   1.0000   1.0000   0.7498   0.0000
     0.0000   0.0000   0.0000   0.0000

          k =-0.1538 0.7692-0.3077 (   615 PWs)   bands (ev):

   -68.7058 -33.9336 -33.8296 -33.6528  16.2094  16.7352  17.7814  20.2667
    21.2166  24.8818  28.2318  30.3097

     occupation numbers 
     1.0000   1.0000   1.0000   1.0000   1.0000   1.0000   1.0052   0.0000
     0.0000   0.0000   0.0000   0.0000

          k =-0.2308 0.7692-0.2308 (   622 PWs)   bands (ev):

   -68.7054 -33.8934 -33.8934 -33.6593  16.6020  16.6020  17.4792  20.7983
    20.7983  26.9923  26.9923  28.7142

     occupation numbers 
     1.0000   1.0000   1.0000   1.0000   1.0000   1.0000   1.0000   0.0000
     0.0000   0.0000   0.0000   0.0000

          k =-0.3077 0.3077 0.3077 (   619 PWs)   bands (ev):

   -68.7461 -33.9053 -33.6393 -33.6393  14.4108  17.0111  17.0111  20.9445
    20.9445  22.3040  33.2673  33.2673

     occupation numbers 
     1.0000   1.0000   1.0000   1.0000   1.0000   1.0000   1.0000   0.0000
     0.0000   0.0000   0.0000   0.0000

          k = 0.6154-0.6154 0.3077 (   623 PWs)   bands (ev):

   -68.7365 -33.9201 -33.6987 -33.6473  15.4918  16.7941  16.8819  20.9667
    21.0906  23.4846  30.4583  32.4350

     occupation numbers 
     1.0000   1.0000   1.0000   1.0000   1.0000   1.0000   1.0000   0.0000
     0.0000   0.0000   0.0000   0.0000

          k = 0.5385-0.5385 0.3077 (   621 PWs)   bands (ev):

   -68.7291 -33.9120 -33.7438 -33.6501  15.9090  16.6958  17.1337  21.0152
    21.2088  24.7478  28.0590  32.0146

     occupation numbers 
     1.0000   1.0000   1.0000   1.0000   1.0000   1.0000   1.0000   0.0000
     0.0000   0.0000   0.0000   0.0000

          k = 0.5385-0.6154 0.3846 (   622 PWs)   bands (ev):

   -68.7295 -33.8882 -33.7444 -33.6755  16.2218  16.6767  16.7803  21.0760
    21.1915  24.9992  29.5382  29.9410

     occupation numbers 
     1.0000   1.0000   1.0000   1.0000   1.0000   1.0000   1.0000   0.0000
     0.0000   0.0000   0.0000   0.0000

          k = 0.4615-0.5385 0.3846 (   626 PWs)   bands (ev):

   -68.7286 -33.8590 -33.7872 -33.6842  16.3365  16.6574  16.8912  21.1138
    21.2204  26.3366  27.7663  29.5420

     occupation numbers 
     1.0000   1.0000   1.0000   1.0000   1.0000   1.0000   1.0000   0.0000
     0.0000   0.0000   0.0000   0.0000

          k = 0.0000 0.0000 0.4615 (   615 PWs)   bands (ev):

   -68.7465 -33.7688 -33.6917 -33.6917  13.4033  18.3848  18.7274  18.7274
    19.7669  21.5328  37.1671  37.1880

     occupation numbers 
     1.0000   1.0000   1.0000   1.0000   1.0000   0.0013   0.0000   0.0000
     0.0000   0.0000   0.0000   0.0000

          k = 0.0000-0.0769 0.5385 (   618 PWs)   bands (ev):

   -68.7289 -33.8390 -33.7326 -33.7057  14.4661  17.6290  18.7512  19.1469
    20.3612  21.8513  33.8681  35.4708

     occupation numbers 
     1.0000   1.0000   1.0000   1.0000   1.0000   1.0000   0.0000   0.0000
     0.0000   0.0000   0.0000   0.0000

          k = 0.0000-0.1538 0.6154 (   616 PWs)   bands (ev):

   -68.7128 -33.9104 -33.7667 -33.6970  15.3793  17.0465  18.6250  19.5245
    21.1552  22.6486  30.6420  34.0792

     occupation numbers 
     1.0000   1.0000   1.0000   1.0000   1.0000   1.0000   0.0000   0.0000
     0.0000   0.0000   0.0000   0.0000

          k = 0.0000-0.2308 0.6923 (   620 PWs)   bands (ev):

   -68.7055 -33.9559 -33.7879 -33.6909  15.8790  16.7585  18.5421  19.6197
    21.6413  23.9967  28.0729  33.2626

     occupation numbers 
     1.0000   1.0000   1.0000   1.0000   1.0000   1.0000   0.0000   0.0000
     0.0000   0.0000   0.0000   0.0000

          k =-0.0769-0.0769 0.6154 (   622 PWs)   bands (ev):

   -68.7141 -33.8834 -33.7818 -33.7220  15.3118  17.0609  18.8497  19.5107
    20.8322  22.5458  32.4982  32.5905

     occupation numbers 
     1.0000   1.0000   1.0000   1.0000   1.0000   1.0000   0.0000   0.0000
     0.0000   0.0000   0.0000   0.0000

          k =-0.0769-0.1538 0.6923 (   624 PWs)   bands (ev):

   -68.7032 -33.9245 -33.8175 -33.7208  15.9138  16.6256  18.7084  19.9113
    21.2790  23.9662  29.5301  31.5427

     occupation numbers 
     1.0000   1.0000   1.0000   1.0000   1.0000   1.0000   0.0000   0.0000
     0.0000   0.0000   0.0000   0.0000

          k =-0.0769 0.7692-0.2308 (   621 PWs)   bands (ev):

   -68.6978 -33.9399 -33.8291 -33.7155  16.1567  16.4544  18.6407  20.0244
    21.5161  25.3539  27.6265  31.1599

     occupation numbers 
     1.0000   1.0000   1.0000   1.0000   1.0000   1.0000   0.0000   0.0000
     0.0000   0.0000   0.0000   0.0000

          k =-0.1538 0.8462-0.2308 (   622 PWs)   bands (ev):

   -68.6952 -33.9136 -33.8687 -33.7206  16.2384  16.3661  18.5342  20.5851
    21.1782  25.9539  28.4819  29.1543

     occupation numbers 
     1.0000   1.0000   1.0000   1.0000   1.0000   1.0000   0.0000   0.0000
     0.0000   0.0000   0.0000   0.0000

          k = 0.5385-0.5385 0.4615 (   625 PWs)   bands (ev):

   -68.7279 -33.8354 -33.7472 -33.7472  16.6285  16.6285  16.6668  21.2072
    21.2072  26.7909  29.0881  29.0881

     occupation numbers 
     1.0000   1.0000   1.0000   1.0000   1.0000   1.0000   1.0000   0.0000
     0.0000   0.0000   0.0000   0.0000

          k = 0.0000 0.0000 0.6154 (   619 PWs)   bands (ev):

   -68.7120 -33.8346 -33.7761 -33.7761  15.1999  17.1463  19.3560  19.3560
    20.4864  22.3628  33.6160  33.6160

     occupation numbers 
     1.0000   1.0000   1.0000   1.0000   1.0000   1.0000   0.0000   0.0000
     0.0000   0.0000   0.0000   0.0000

          k = 0.0000-0.0769 0.6923 (   621 PWs)   bands (ev):

   -68.6985 -33.8850 -33.8087 -33.7845  15.7211  16.6098  19.5354  19.7558
    21.0805  23.4244  31.0663  32.1238

     occupation numbers 
     1.0000   1.0000   1.0000   1.0000   1.0000   1.0000   0.0000   0.0000
     0.0000   0.0000   0.0000   0.0000

          k = 0.0000-0.1538 0.7692 (   627 PWs)   bands (ev):

   -68.6928 -33.9244 -33.8318 -33.7796  15.9979  16.2558  19.5268  19.9470
    21.5746  25.1716  28.3647  31.2322

     occupation numbers 
     1.0000   1.0000   1.0000   1.0000   1.0000   1.0000   0.0000   0.0000
     0.0000   0.0000   0.0000   0.0000

          k =-0.0769-0.0769 0.7692 (   632 PWs)   bands (ev):

   -68.6922 -33.9071 -33.8529 -33.7990  15.8896  16.2278  19.6216  20.3942
    21.3218  24.9678  29.8472  29.9875

     occupation numbers 
     1.0000   1.0000   1.0000   1.0000   1.0000   1.0000   0.0000   0.0000
     0.0000   0.0000   0.0000   0.0000

          k =-0.0769 0.8462-0.1538 (   631 PWs)   bands (ev):

   -68.6880 -33.9110 -33.8704 -33.7995  16.0072  16.0255  19.6125  20.7034
    21.4391  26.7473  27.8082  29.4800

     occupation numbers 
     1.0000   1.0000   1.0000   1.0000   1.0000   1.0000   0.0000   0.0000
     0.0000   0.0000   0.0000   0.0000

          k = 0.0000 0.0000 0.7692 (   630 PWs)   bands (ev):

   -68.6889 -33.8808 -33.8450 -33.8450  15.7595  16.1843  20.3423  20.3423
    21.1390  24.5667  30.5203  30.5203

     occupation numbers 
     1.0000   1.0000   1.0000   1.0000   1.0000   1.0000   0.0000   0.0000
     0.0000   0.0000   0.0000   0.0000

          k = 0.0000-0.0769 0.8462 (   633 PWs)   bands (ev):

   -68.6825 -33.9024 -33.8662 -33.8510  15.7782  15.8962  20.5788  20.7341
    21.5088  26.3198  28.6434  29.5230

     occupation numbers 
     1.0000   1.0000   1.0000   1.0000   1.0000   1.0000   0.0000   0.0000
     0.0000   0.0000   0.0000   0.0000

          k =-0.0769 0.9231-0.0769 (   625 PWs)   bands (ev):

   -68.6757 -33.8864 -33.8864 -33.8560  15.7588  15.7588  20.7304  21.3966
    21.3966  27.9338  27.9338  28.3624

     occupation numbers 
     1.0000   1.0000   1.0000   1.0000   1.0000   1.0000   0.0000   0.0000
     0.0000   0.0000   0.0000   0.0000

          k = 0.0000 0.0000 0.9231 (   630 PWs)   bands (ev):

   -68.6737 -33.8936 -33.8809 -33.8809  15.6394  15.6764  21.3347  21.3347
    21.5459  27.4891  28.4336  28.4336

     occupation numbers 
     1.0000   1.0000   1.0000   1.0000   1.0000   1.0000   0.0000   0.0000
     0.0000   0.0000   0.0000   0.0000

     the Fermi energy is    18.1482 ev

!    total energy              =    -241.31360842 Ry
     estimated scf accuracy    <          4.1E-13 Ry
     smearing contrib. (-TS)   =       0.00008087 Ry
     internal energy E=F+TS    =    -241.31368929 Ry

     The total energy is F=E-TS. E is the sum of the following terms:
     one-electron contribution =    -103.32382370 Ry
     hartree contribution      =      60.46331851 Ry
     xc contribution           =     -26.11804476 Ry
     ewald contribution        =    -172.33513934 Ry

     total magnetization       =     2.65 Bohr mag/cell
     absolute magnetization    =     2.92 Bohr mag/cell

     convergence has been achieved in  22 iterations
     Writing meta-gga kinetic term

     Writing all to output data dir ./tmp/Fe.save/
     Writing meta-gga kinetic term

     init_run     :      1.80s CPU      1.87s WALL (       1 calls)
     electrons    :     88.65s CPU     90.12s WALL (       1 calls)

     Called by init_run:
     wfcinit      :      1.54s CPU      1.58s WALL (       1 calls)
     wfcinit:atom :      0.02s CPU      0.02s WALL (     168 calls)
     wfcinit:wfcr :      1.48s CPU      1.51s WALL (     168 calls)
     potinit      :      0.02s CPU      0.03s WALL (       1 calls)
     hinit0       :      0.22s CPU      0.23s WALL (       1 calls)

     Called by electrons:
     c_bands      :     72.16s CPU     73.38s WALL (      22 calls)
     sum_band     :     15.99s CPU     16.23s WALL (      22 calls)
     v_of_rho     :      0.42s CPU      0.42s WALL (      23 calls)
     v_h          :      0.00s CPU      0.00s WALL (      23 calls)
     v_xc_meta    :      0.42s CPU      0.42s WALL (      23 calls)
     mix_rho      :      0.08s CPU      0.08s WALL (      22 calls)

     Called by c_bands:
     init_us_2    :      1.30s CPU      1.31s WALL (    7560 calls)
     init_us_2:cp :      1.28s CPU      1.30s WALL (    7560 calls)
     cegterg      :     70.46s CPU     71.66s WALL (    3696 calls)

     Called by sum_band:
     sum_band:wei :      0.02s CPU      0.03s WALL (      22 calls)
     sum_band:loo :     15.92s CPU     16.16s WALL (      22 calls)
     sum_band:buf :      0.06s CPU      0.06s WALL (    3696 calls)
     sum_band:ini :      0.63s CPU      0.64s WALL (    3696 calls)

     Called by *egterg:
     cdiaghg      :      0.93s CPU      0.94s WALL (    8818 calls)
     cegterg:over :      1.82s CPU      1.85s WALL (    5122 calls)
     cegterg:upda :      0.88s CPU      0.90s WALL (    5122 calls)
     cegterg:last :      1.18s CPU      1.19s WALL (    4786 calls)
     h_psi        :     65.94s CPU     67.08s WALL (    8986 calls)
     g_psi        :      0.09s CPU      0.09s WALL (    5122 calls)

     Called by h_psi:
     h_psi:calbec :      1.37s CPU      1.39s WALL (    8986 calls)
     vloc_psi     :     15.99s CPU     16.24s WALL (    8986 calls)
     add_vuspsi   :      1.26s CPU      1.28s WALL (    8986 calls)
     h_psi_meta   :     47.18s CPU     48.03s WALL (    8986 calls)

     General routines
     calbec       :      1.36s CPU      1.38s WALL (    8986 calls)
     fft          :      0.18s CPU      0.18s WALL (     523 calls)
     ffts         :      0.01s CPU      0.01s WALL (      88 calls)
     fftw         :     67.97s CPU     69.17s WALL (  935800 calls)
     interpolate  :      0.00s CPU      0.00s WALL (      46 calls)

     Parallel routines

     PWSCF        :   1m30.51s CPU   1m32.08s WALL


   This run was terminated on:  14: 1: 7  12Oct2022            

=------------------------------------------------------------------------------=
   JOB DONE.
=------------------------------------------------------------------------------=
