
     Program PWSCF v.7.1 starts on 31Oct2022 at 16: 6:38 

     This program is part of the open-source Quantum ESPRESSO suite
     for quantum simulation of materials; please cite
         "P. Giannozzi et al., J. Phys.:Condens. Matter 21 395502 (2009);
         "P. Giannozzi et al., J. Phys.:Condens. Matter 29 465901 (2017);
         "P. Giannozzi et al., J. Chem. Phys. 152 154105 (2020);
          URL http://www.quantum-espresso.org", 
     in publications or presentations arising from this work. More details at
     http://www.quantum-espresso.org/quote

     Parallel version (MPI), running on    24 processors

     MPI processes distributed on     1 nodes
     181750 MiB available memory on the printing compute node when the environment starts
 
     Reading input from nscf.pwi
Warning: card &IONS ignored
Warning: card / ignored
Warning: card &CELL ignored
Warning: card / ignored

     Current dimensions of program PWSCF are:
     Max number of different atomic species (ntypx) = 10
     Max number of k-points (npk) =  40000
     Max angular momentum in pseudopotentials (lmaxx) =  4

     Atomic positions and unit cell read from directory:
     /home/degennar/CODES/hubbard-koopmans-2022/Day3/exercise2/init/TMP/kc.save/
     Atomic positions from file used, from input discarded
 
 
     K-points division:     npool     =       4
     R & G space division:  proc/nbgrp/npool/nimage =       6
     Subspace diagonalization in iterative solution of the eigenvalue problem:
     a serial algorithm will be used

 
     Parallelization info
     --------------------
     sticks:   dense  smooth     PW     G-vecs:    dense   smooth      PW
     Min          49      49     15                  547      547     101
     Max          50      50     16                  549      549     103
     Sum         295     295     91                 3287     3287     609
 
     Using Slab Decomposition
 


     bravais-lattice index     =            2
     lattice parameter (alat)  =      10.2622  a.u.
     unit-cell volume          =     270.1851 (a.u.)^3
     number of atoms/cell      =            2
     number of atomic types    =            1
     number of electrons       =         8.00
     number of Kohn-Sham states=           20
     kinetic-energy cutoff     =      20.0000  Ry
     charge density cutoff     =      80.0000  Ry
     Exchange-correlation= SLA  PW   NOGX NOGC
                           (   1   4   0   0   0   0   0)

     celldm(1)=  10.262200  celldm(2)=   0.000000  celldm(3)=   0.000000
     celldm(4)=   0.000000  celldm(5)=   0.000000  celldm(6)=   0.000000

     crystal axes: (cart. coord. in units of alat)
               a(1) = (  -0.500000   0.000000   0.500000 )  
               a(2) = (   0.000000   0.500000   0.500000 )  
               a(3) = (  -0.500000   0.500000   0.000000 )  

     reciprocal axes: (cart. coord. in units 2 pi/alat)
               b(1) = ( -1.000000 -1.000000  1.000000 )  
               b(2) = (  1.000000  1.000000  1.000000 )  
               b(3) = ( -1.000000  1.000000 -1.000000 )  


     PseudoPot. # 1 for Si read from file:
     /home/degennar/CODES/koopmans/src/koopmans/pseudopotentials/pseudo_dojo_standard_v0.4.1/lda/Si.upf
     MD5 check sum: 9e2d726316af3d4752eea8ab0afbb951
     Pseudo is Norm-conserving + core correction, Zval =  4.0
     Generated using ONCVPSP code by D. R. Hamann
     Using radial grid of 1510 points,  6 beta functions with: 
                l(1) =   0
                l(2) =   0
                l(3) =   1
                l(4) =   1
                l(5) =   2
                l(6) =   2

     atomic species   valence    mass     pseudopotential
        Si             4.00    28.08500     Si( 1.00)

     No symmetry found


                                    s                        frac. trans.

      isym =  1     identity                                     

 cryst.   s( 1) = (     1          0          0      )
                  (     0          1          0      )
                  (     0          0          1      )

 cart.    s( 1) = (  1.0000000  0.0000000  0.0000000 )
                  (  0.0000000  1.0000000  0.0000000 )
                  (  0.0000000  0.0000000  1.0000000 )


     point group C_1 (1)    
     there are  1 classes
     the character table:

       E    
A      1.00

     the symmetry operations in each class and the name of the first element:

     E        1
          identity                                               

   Cartesian axes

     site n.     atom                  positions (alat units)
         1           Si  tau(   1) = (   0.0000000   0.0000000   0.0000000  )
         2           Si  tau(   2) = (  -0.2500000   0.2500000   0.2500000  )

   Crystallographic axes

     site n.     atom                  positions (cryst. coord.)
         1           Si  tau(   1) = (  0.0000000  0.0000000  0.0000000  )
         2           Si  tau(   2) = (  0.2500000  0.2500000  0.2500000  )

     number of k points=     8
                       cart. coord. in units 2pi/alat
        k(    1) = (   0.0000000   0.0000000   0.0000000), wk =   0.2500000
        k(    2) = (   0.5000000  -0.5000000   0.5000000), wk =   0.2500000
        k(    3) = (  -0.5000000  -0.5000000  -0.5000000), wk =   0.2500000
        k(    4) = (   0.0000000  -1.0000000   0.0000000), wk =   0.2500000
        k(    5) = (   0.5000000   0.5000000  -0.5000000), wk =   0.2500000
        k(    6) = (   1.0000000   0.0000000   0.0000000), wk =   0.2500000
        k(    7) = (   0.0000000   0.0000000  -1.0000000), wk =   0.2500000
        k(    8) = (   0.5000000  -0.5000000  -0.5000000), wk =   0.2500000

                       cryst. coord.
        k(    1) = (   0.0000000   0.0000000   0.0000000), wk =   0.2500000
        k(    2) = (   0.0000000   0.0000000  -0.5000000), wk =   0.2500000
        k(    3) = (   0.0000000  -0.5000000   0.0000000), wk =   0.2500000
        k(    4) = (   0.0000000  -0.5000000  -0.5000000), wk =   0.2500000
        k(    5) = (  -0.5000000   0.0000000   0.0000000), wk =   0.2500000
        k(    6) = (  -0.5000000   0.0000000  -0.5000000), wk =   0.2500000
        k(    7) = (  -0.5000000  -0.5000000   0.0000000), wk =   0.2500000
        k(    8) = (  -0.5000000  -0.5000000  -0.5000000), wk =   0.2500000

     Dense  grid:     3287 G-vectors     FFT dimensions: (  24,  24,  24)

     Dynamical RAM for                 wfc:       0.02 MB

     Dynamical RAM for     wfc (w. buffer):       0.02 MB

     Dynamical RAM for           str. fact:       0.01 MB

     Dynamical RAM for           local pot:       0.00 MB

     Dynamical RAM for          nlocal pot:       0.04 MB

     Dynamical RAM for                qrad:       0.72 MB

     Dynamical RAM for          rho,v,vnew:       0.08 MB

     Dynamical RAM for           G-vectors:       0.04 MB

     Dynamical RAM for          h,s,v(r/c):       0.07 MB

     Dynamical RAM for          <psi|beta>:       0.01 MB

     Dynamical RAM for                 psi:       0.04 MB

     Dynamical RAM for                hpsi:       0.04 MB

     Dynamical RAM for      wfcinit/wfcrot:       0.05 MB

     Estimated static dynamical RAM per process >       1.00 MB

     Estimated max dynamical RAM per process >       1.17 MB

     Estimated total dynamical RAM >      28.11 MB

     The potential is recalculated from file :
     /home/degennar/CODES/hubbard-koopmans-2022/Day3/exercise2/init/TMP/kc.save/charge-density

     Starting wfcs are    8 randomized atomic wfcs +   12 random wfcs

     Band Structure Calculation
     Davidson diagonalization with overlap

     Computing kpt #:     1  of     2 on this pool
     total cpu time spent up to now is        0.1 secs

     Computing kpt #:     2  of     2 on this pool
     total cpu time spent up to now is        0.2 secs

     ethr =  2.00E-10,  avg # of iterations = 29.5

     total cpu time spent up to now is        0.2 secs

     End of band structure calculation

          k = 0.0000 0.0000 0.0000 (   411 PWs)   bands (ev):

    -5.7048   6.3461   6.3461   6.3461   8.7403   8.7403   8.7403   9.4979
    13.7993  13.9951  13.9951  17.2352  17.2352  17.2352  21.1283  29.3791
    29.3791  29.3791  30.5408  30.5408

     occupation numbers 
     1.0000   1.0000   1.0000   1.0000   0.0000   0.0000   0.0000   0.0000
     0.0000   0.0000   0.0000   0.0000   0.0000   0.0000   0.0000   0.0000
     0.0000   0.0000   0.0000   0.0000

          k = 0.5000-0.5000 0.5000 (   410 PWs)   bands (ev):

    -3.3359  -0.7597   5.1119   5.1119   7.6808   9.4961   9.4961  13.6106
    16.8448  16.8448  17.4097  17.5121  17.5121  19.0440  25.5792  26.0356
    27.7442  27.7442  28.0449  28.0449

     occupation numbers 
     1.0000   1.0000   1.0000   1.0000   0.0000   0.0000   0.0000   0.0000
     0.0000   0.0000   0.0000   0.0000   0.0000   0.0000   0.0000   0.0000
     0.0000   0.0000   0.0000   0.0000

          k =-0.5000-0.5000-0.5000 (   410 PWs)   bands (ev):

    -3.3359  -0.7597   5.1119   5.1119   7.6808   9.4961   9.4961  13.6106
    16.8448  16.8448  17.4097  17.5121  17.5121  19.0440  25.5792  26.0356
    27.7442  27.7442  28.0449  28.0449

     occupation numbers 
     1.0000   1.0000   1.0000   1.0000   0.0000   0.0000   0.0000   0.0000
     0.0000   0.0000   0.0000   0.0000   0.0000   0.0000   0.0000   0.0000
     0.0000   0.0000   0.0000   0.0000

          k = 0.0000-1.0000 0.0000 (   412 PWs)   bands (ev):

    -1.5302  -1.5302   3.4067   3.4067   6.7679   6.7679  16.2519  16.2519
    17.3253  17.3253  18.8353  18.8353  19.1053  19.1053  24.9632  24.9632
    25.6648  25.6648  26.3291  26.3291

     occupation numbers 
     1.0000   1.0000   1.0000   1.0000   0.0000   0.0000   0.0000   0.0000
     0.0000   0.0000   0.0000   0.0000   0.0000   0.0000   0.0000   0.0000
     0.0000   0.0000   0.0000   0.0000

          k = 0.5000 0.5000-0.5000 (   410 PWs)   bands (ev):

    -3.3359  -0.7597   5.1119   5.1119   7.6808   9.4961   9.4961  13.6106
    16.8448  16.8448  17.4097  17.5121  17.5121  19.0440  25.5792  26.0356
    27.7442  27.7442  28.0449  28.0449

     occupation numbers 
     1.0000   1.0000   1.0000   1.0000   0.0000   0.0000   0.0000   0.0000
     0.0000   0.0000   0.0000   0.0000   0.0000   0.0000   0.0000   0.0000
     0.0000   0.0000   0.0000   0.0000

          k = 1.0000 0.0000 0.0000 (   412 PWs)   bands (ev):

    -1.5302  -1.5302   3.4067   3.4067   6.7679   6.7679  16.2519  16.2519
    17.3253  17.3253  18.8353  18.8353  19.1053  19.1053  24.9632  24.9632
    25.6648  25.6648  26.3291  26.3291

     occupation numbers 
     1.0000   1.0000   1.0000   1.0000   0.0000   0.0000   0.0000   0.0000
     0.0000   0.0000   0.0000   0.0000   0.0000   0.0000   0.0000   0.0000
     0.0000   0.0000   0.0000   0.0000

          k = 0.0000 0.0000-1.0000 (   412 PWs)   bands (ev):

    -1.5302  -1.5302   3.4067   3.4067   6.7679   6.7679  16.2519  16.2519
    17.3253  17.3253  18.8353  18.8353  19.1053  19.1053  24.9632  24.9632
    25.6648  25.6648  26.3291  26.3291

     occupation numbers 
     1.0000   1.0000   1.0000   1.0000   0.0000   0.0000   0.0000   0.0000
     0.0000   0.0000   0.0000   0.0000   0.0000   0.0000   0.0000   0.0000
     0.0000   0.0000   0.0000   0.0000

          k = 0.5000-0.5000-0.5000 (   410 PWs)   bands (ev):

    -3.3359  -0.7597   5.1119   5.1119   7.6808   9.4961   9.4961  13.6106
    16.8448  16.8448  17.4097  17.5121  17.5121  19.0440  25.5792  26.0356
    27.7442  27.7442  28.0449  28.0449

     occupation numbers 
     1.0000   1.0000   1.0000   1.0000   0.0000   0.0000   0.0000   0.0000
     0.0000   0.0000   0.0000   0.0000   0.0000   0.0000   0.0000   0.0000
     0.0000   0.0000   0.0000   0.0000

     highest occupied, lowest unoccupied level (ev):     6.3461    6.7679

     Writing all to output data dir /home/degennar/CODES/hubbard-koopmans-2022/Day3/exercise2/init/TMP/kc.save/
 
     init_run     :      0.01s CPU      0.01s WALL (       1 calls)
     electrons    :      0.07s CPU      0.07s WALL (       1 calls)

     Called by init_run:
     wfcinit      :      0.00s CPU      0.00s WALL (       1 calls)
     wfcinit:atom :      0.00s CPU      0.00s WALL (       2 calls)
     wfcinit:wfcr :      0.00s CPU      0.00s WALL (       2 calls)
     potinit      :      0.00s CPU      0.00s WALL (       1 calls)
     hinit0       :      0.00s CPU      0.00s WALL (       1 calls)

     Called by electrons:
     c_bands      :      0.07s CPU      0.07s WALL (       1 calls)
     v_of_rho     :      0.00s CPU      0.00s WALL (       1 calls)
     v_h          :      0.00s CPU      0.00s WALL (       1 calls)
     v_xc         :      0.00s CPU      0.00s WALL (       1 calls)

     Called by c_bands:
     init_us_2    :      0.00s CPU      0.00s WALL (       2 calls)
     init_us_2:cp :      0.00s CPU      0.00s WALL (       2 calls)
     cegterg      :      0.06s CPU      0.06s WALL (       4 calls)

     Called by sum_band:

     Called by *egterg:
     cdiaghg      :      0.03s CPU      0.03s WALL (      61 calls)
     cegterg:over :      0.00s CPU      0.00s WALL (      59 calls)
     cegterg:upda :      0.00s CPU      0.00s WALL (      59 calls)
     cegterg:last :      0.00s CPU      0.00s WALL (      40 calls)
     h_psi        :      0.03s CPU      0.03s WALL (      65 calls)
     g_psi        :      0.00s CPU      0.00s WALL (      59 calls)

     Called by h_psi:
     h_psi:calbec :      0.00s CPU      0.00s WALL (      65 calls)
     vloc_psi     :      0.02s CPU      0.03s WALL (      65 calls)
     add_vuspsi   :      0.00s CPU      0.00s WALL (      65 calls)

     General routines
     calbec       :      0.00s CPU      0.00s WALL (      65 calls)
     fft          :      0.00s CPU      0.00s WALL (       4 calls)
     fftw         :      0.02s CPU      0.02s WALL (    1602 calls)
     davcio       :      0.00s CPU      0.00s WALL (       4 calls)
 
     Parallel routines
 
     PWSCF        :      0.17s CPU      0.19s WALL

 
   This run was terminated on:  16: 6:39  31Oct2022            

=------------------------------------------------------------------------------=
   JOB DONE.
=------------------------------------------------------------------------------=
