
     Program HP v.7.1 starts on  8Nov2022 at 13: 5:26 

     This program is part of the open-source Quantum ESPRESSO suite
     for quantum simulation of materials; please cite
         "P. Giannozzi et al., J. Phys.:Condens. Matter 21 395502 (2009);
         "P. Giannozzi et al., J. Phys.:Condens. Matter 29 465901 (2017);
         "P. Giannozzi et al., J. Chem. Phys. 152 154105 (2020);
          URL http://www.quantum-espresso.org", 
     in publications or presentations arising from this work. More details at
     http://www.quantum-espresso.org/quote

     Parallel version (MPI), running on     1 processors

     MPI processes distributed on     1 nodes
     43448 MiB available memory on the printing compute node when the environment starts
 

     =--------------------------------------------------------------------------=

       Calculation of Hubbard parameters from DFPT; please cite this program as

       I. Timrov, N. Marzari, and M. Cococcioni, Phys. Rev. B 98,  085127 (2018)

       I. Timrov, N. Marzari, and M. Cococcioni, Phys. Rev. B 103, 045141 (2021)

     =--------------------------------------------------------------------------=

     Reading xml data from directory:

     ./tmp/MnO.save/
     file O.pbesol-n-kjpaw_psl.0.1.UPF: wavefunction(s)  2P renormalized

     IMPORTANT: XC functional enforced from input :
     Exchange-correlation= PBESOL
                           (   1   4  10   8   0   0   0)
     Any further DFT definition will be discarded
     Please, verify this is what you really want

 
     G-vector sticks info
     --------------------
     sticks:   dense  smooth     PW     G-vecs:    dense   smooth      PW
     Sum         847     349    109                32259     8171    1497
 
     Using Slab Decomposition
 

     Check: negative core charge=   -0.000041
     Reading collected, re-writing distributed wavefunctions
 

     bravais-lattice index     =             0
     lattice parameter (alat)  =        5.2648 (a.u.)
     unit-cell volume          =      200.1385 (a.u.)^3
     number of atoms/cell      =             4
     number of atomic types    =             3
     kinetic-energy cut-off    =         45.00 (Ry)
     charge density cut-off    =        450.00 (Ry)
     conv. thresh. for NSCF    =       1.0E-11
     conv. thresh. for chi     =       1.0E-07
     Input Hubbard parameters (in eV):
       V (  1,   1)  =   0.0001
       V (  1,   3)  =   0.0001
       V (  1,   8)  =   0.0001
       V (  1,  20)  =   0.0001
       V (  1,  23)  =   0.0001
       V (  1,  44)  =   0.0001
       V (  1,  47)  =   0.0001
       V (  2,   2)  =   0.0001
       V (  2,   3)  =   0.0001
       V (  2,  12)  =   0.0001
       V (  2,  23)  =   0.0001
       V (  2,  24)  =   0.0001
       V (  2,  47)  =   0.0001
       V (  2,  48)  =   0.0001
       V (  3,   1)  =   0.0001
       V (  3,   2)  =   0.0001
       V (  3,   3)  =   0.0000
       V (  3,  65)  =   0.0001
       V (  3,  66)  =   0.0001
       V (  3,  89)  =   0.0001
       V (  3,  90)  =   0.0001
       V (  4,   4)  =   0.0000
       V (  4,  66)  =   0.0001
       V (  4,  69)  =   0.0001
       V (  4,  90)  =   0.0001
       V (  4,  93)  =   0.0001
       V (  4, 102)  =   0.0001
       V (  4, 105)  =   0.0001

     celldm(1) =  5.26480  celldm(2) =  0.00000  celldm(3) =  0.00000
     celldm(4) =  0.00000  celldm(5) =  0.00000  celldm(6) =  0.00000

     crystal axes: (cart. coord. in units of alat)
               a(1) = (  0.5000  0.8660  0.0000 )  
               a(2) = ( -0.5000  0.8660  0.0000 )  
               a(3) = (  0.0000  0.0000  1.5836 )  

     reciprocal axes: (cart. coord. in units 2 pi/alat)
               b(1) = (  1.0000  0.5774  0.0000 )  
               b(2) = ( -1.0000  0.5774  0.0000 )  
               b(3) = (  0.0000  0.0000  0.6315 )  

     Atoms inside the unit cell (Cartesian axes):
     site n.  atom      mass           positions (alat units)
        1      Mn1     1.0000   tau(  1) = (  0.00000  0.00000  0.00000  )
        2      Mn2     1.0000   tau(  2) = (  0.00000  0.00000  0.79182  )
        3      O       1.0000   tau(  3) = (  0.00000  0.57735  1.18772  )
        4      O       1.0000   tau(  4) = (  0.00000  1.15470  0.39591  )

     List of  2 atoms which will be perturbed (one at a time):

        1      Mn1     1.0000   tau( 1) = (  0.00000  0.00000  0.00000  )
        3      O       1.0000   tau( 3) = (  0.00000  0.57735  1.18772  )
 
     =====================================================================

                          PERTURBED ATOM #    1

     site n.  atom      mass           positions (alat units)
        1      Mn1     1.0000   tau( 1) = (  0.00000  0.00000  0.00000  )
 
     =====================================================================

     The perturbed atom has a type which is unique!


     The grid of q-points ( 2, 2, 1)  (  2 q-points ) :
       N       xq(1)         xq(2)         xq(3)       wq
       1   0.000000000   0.000000000   0.000000000   0.250000000
       2   0.500000000  -0.288675135   0.000000000   0.750000000


     =-------------------------------------------------------------=

     Calculation for q #   1 = (   0.0000000   0.0000000   0.0000000 )

     =-------------------------------------------------------------=

                   WRITING LINEAR-RESPONSE SUMMARY:


     Number of symmetries in the small group of q, nsymq = 12
      + the symmetry q -> -q+G 

     Symmetry matrices (and vectors of fractional translations if f/=0):

     isym =  1     identity                                     

     cryst.   s( 1) = (     1          0          0      )
                      (     0          1          0      )
                      (     0          0          1      )

     cart.    s( 1) = (  1.0000000  0.0000000  0.0000000 )
                      (  0.0000000  1.0000000  0.0000000 )
                      (  0.0000000  0.0000000  1.0000000 )


     isym =  2     180 deg rotation - cart. axis [1,0,0]        

     cryst.   s( 2) = (     0         -1          0      )
                      (    -1          0          0      )
                      (     0          0         -1      )

     cart.    s( 2) = (  1.0000000  0.0000000  0.0000000 )
                      (  0.0000000 -1.0000000  0.0000000 )
                      (  0.0000000  0.0000000 -1.0000000 )


     isym =  3     120 deg rotation - cryst. axis [0,0,1]       

     cryst.   s( 3) = (    -1          1          0      )
                      (    -1          0          0      )
                      (     0          0          1      )

     cart.    s( 3) = ( -0.5000000 -0.8660254  0.0000000 )
                      (  0.8660254 -0.5000000  0.0000000 )
                      (  0.0000000  0.0000000  1.0000000 )


     isym =  4     120 deg rotation - cryst. axis [0,0,-1]      

     cryst.   s( 4) = (     0         -1          0      )
                      (     1         -1          0      )
                      (     0          0          1      )

     cart.    s( 4) = ( -0.5000000  0.8660254  0.0000000 )
                      ( -0.8660254 -0.5000000  0.0000000 )
                      (  0.0000000  0.0000000  1.0000000 )


     isym =  5     180 deg rotation - cryst. axis [0,1,0]       

     cryst.   s( 5) = (    -1          1          0      )
                      (     0          1          0      )
                      (     0          0         -1      )

     cart.    s( 5) = ( -0.5000000 -0.8660254  0.0000000 )
                      ( -0.8660254  0.5000000  0.0000000 )
                      (  0.0000000  0.0000000 -1.0000000 )


     isym =  6     180 deg rotation - cryst. axis [1,1,0]       

     cryst.   s( 6) = (     1          0          0      )
                      (     1         -1          0      )
                      (     0          0         -1      )

     cart.    s( 6) = ( -0.5000000  0.8660254  0.0000000 )
                      (  0.8660254  0.5000000  0.0000000 )
                      (  0.0000000  0.0000000 -1.0000000 )


     isym =  7     inversion                                    

     cryst.   s( 7) = (    -1          0          0      )
                      (     0         -1          0      )
                      (     0          0         -1      )

     cart.    s( 7) = ( -1.0000000  0.0000000  0.0000000 )
                      (  0.0000000 -1.0000000  0.0000000 )
                      (  0.0000000  0.0000000 -1.0000000 )


     isym =  8     inv. 180 deg rotation - cart. axis [1,0,0]   

     cryst.   s( 8) = (     0          1          0      )
                      (     1          0          0      )
                      (     0          0          1      )

     cart.    s( 8) = ( -1.0000000  0.0000000  0.0000000 )
                      (  0.0000000  1.0000000  0.0000000 )
                      (  0.0000000  0.0000000  1.0000000 )


     isym =  9     inv. 120 deg rotation - cryst. axis [0,0,1]  

     cryst.   s( 9) = (     1         -1          0      )
                      (     1          0          0      )
                      (     0          0         -1      )

     cart.    s( 9) = (  0.5000000  0.8660254  0.0000000 )
                      ( -0.8660254  0.5000000  0.0000000 )
                      (  0.0000000  0.0000000 -1.0000000 )


     isym = 10     inv. 120 deg rotation - cryst. axis [0,0,-1] 

     cryst.   s(10) = (     0          1          0      )
                      (    -1          1          0      )
                      (     0          0         -1      )

     cart.    s(10) = (  0.5000000 -0.8660254  0.0000000 )
                      (  0.8660254  0.5000000  0.0000000 )
                      (  0.0000000  0.0000000 -1.0000000 )


     isym = 11     inv. 180 deg rotation - cryst. axis [0,1,0]  

     cryst.   s(11) = (     1         -1          0      )
                      (     0         -1          0      )
                      (     0          0          1      )

     cart.    s(11) = (  0.5000000  0.8660254  0.0000000 )
                      (  0.8660254 -0.5000000  0.0000000 )
                      (  0.0000000  0.0000000  1.0000000 )


     isym = 12     inv. 180 deg rotation - cryst. axis [1,1,0]  

     cryst.   s(12) = (    -1          0          0      )
                      (    -1          1          0      )
                      (     0          0          1      )

     cart.    s(12) = (  0.5000000 -0.8660254  0.0000000 )
                      ( -0.8660254 -0.5000000  0.0000000 )
                      (  0.0000000  0.0000000  1.0000000 )


     This transformation sends q -> -q+G

     isym = 13     identity                                     

     cryst.   s(13) = (     1          0          0      )
                      (     0          1          0      )
                      (     0          0          1      )

     cart.    s(13) = (  1.0000000  0.0000000  0.0000000 )
                      (  0.0000000  1.0000000  0.0000000 )
                      (  0.0000000  0.0000000  1.0000000 )


     G cutoff =  315.9487  (  32259 G-vectors)     FFT grid: ( 36, 36, 60)
     G cutoff =  126.3795  (   8171 G-vectors)  smooth grid: ( 24, 24, 36)

     Number of k (and k+q if q/=0) points =    18  Marzari-Vanderbilt smearing, width (Ry) =  0.0100

                       cart. coord. (in units 2pi/alat)
        k (    1) = (   0.0000000   0.0000000   0.0000000), wk = 0.0208333
        k (    2) = (   0.0000000   0.0000000   0.2104865), wk = 0.0416667
        k (    3) = (  -0.2500000   0.1443376   0.0000000), wk = 0.1250000
        k (    4) = (  -0.2500000   0.1443376   0.2104865), wk = 0.1250000
        k (    5) = (   0.5000000  -0.2886751   0.0000000), wk = 0.0625000
        k (    6) = (   0.5000000  -0.2886751   0.2104865), wk = 0.1250000
        k (    7) = (   0.7500000  -0.1443376   0.0000000), wk = 0.1250000
        k (    8) = (   0.7500000  -0.1443376   0.2104865), wk = 0.2500000
        k (    9) = (   0.2500000   0.1443376  -0.2104865), wk = 0.1250000
        k (   10) = (   0.0000000   0.0000000   0.0000000), wk = 0.0208333
        k (   11) = (   0.0000000   0.0000000   0.2104865), wk = 0.0416667
        k (   12) = (  -0.2500000   0.1443376   0.0000000), wk = 0.1250000
        k (   13) = (  -0.2500000   0.1443376   0.2104865), wk = 0.1250000
        k (   14) = (   0.5000000  -0.2886751   0.0000000), wk = 0.0625000
        k (   15) = (   0.5000000  -0.2886751   0.2104865), wk = 0.1250000
        k (   16) = (   0.7500000  -0.1443376   0.0000000), wk = 0.1250000
        k (   17) = (   0.7500000  -0.1443376   0.2104865), wk = 0.2500000
        k (   18) = (   0.2500000   0.1443376  -0.2104865), wk = 0.1250000

                       cryst. coord.
        k (    1) = (   0.0000000   0.0000000   0.0000000), wk = 0.0208333
        k (    2) = (   0.0000000   0.0000000   0.3333333), wk = 0.0416667
        k (    3) = (   0.0000000   0.2500000   0.0000000), wk = 0.1250000
        k (    4) = (   0.0000000   0.2500000   0.3333333), wk = 0.1250000
        k (    5) = (   0.0000000  -0.5000000   0.0000000), wk = 0.0625000
        k (    6) = (   0.0000000  -0.5000000   0.3333333), wk = 0.1250000
        k (    7) = (   0.2500000  -0.5000000   0.0000000), wk = 0.1250000
        k (    8) = (   0.2500000  -0.5000000   0.3333333), wk = 0.2500000
        k (    9) = (   0.2500000   0.0000000  -0.3333333), wk = 0.1250000
        k (   10) = (   0.0000000   0.0000000   0.0000000), wk = 0.0208333
        k (   11) = (   0.0000000   0.0000000   0.3333333), wk = 0.0416667
        k (   12) = (   0.0000000   0.2500000   0.0000000), wk = 0.1250000
        k (   13) = (   0.0000000   0.2500000   0.3333333), wk = 0.1250000
        k (   14) = (   0.0000000  -0.5000000   0.0000000), wk = 0.0625000
        k (   15) = (   0.0000000  -0.5000000   0.3333333), wk = 0.1250000
        k (   16) = (   0.2500000  -0.5000000   0.0000000), wk = 0.1250000
        k (   17) = (   0.2500000  -0.5000000   0.3333333), wk = 0.2500000
        k (   18) = (   0.2500000   0.0000000  -0.3333333), wk = 0.1250000

     Atomic wfc used for the projector on the Hubbard manifold are orthogonalized

     Total time spent up to now is:
     HP           :      1.60s CPU      1.75s WALL

      =--------------------------------------------=
                 SOLVE THE LINEAR SYSTEM
      =--------------------------------------------=

      atom #  1   q point #   1   iter #   1
 
     Pert. #  1: Fermi energy shift (Ry) =     3.8461E-01     1.9427E-13
      chi:   1  -0.8943527422
      chi:   2   0.7435304520
      chi:   3   0.0616727894
      chi:   4   0.0616727894
      Average number of iter. to solve lin. system:   35.6
      Total CPU time :    12.5 s

      atom #  1   q point #   1   iter #   2
 
     Pert. #  1: Fermi energy shift (Ry) =     3.6061E-01     5.5228E-08
      chi:   1   0.1262969820   residue:    1.0206497241
      chi:   2  -0.2596692450   residue:    1.0031996969
      chi:   3   0.0526080863   residue:    0.0090647031
      chi:   4   0.0526080863   residue:    0.0090647031
      Average number of iter. to solve lin. system:   11.7
      Total CPU time :    17.6 s

      atom #  1   q point #   1   iter #   3
 
     Pert. #  1: Fermi energy shift (Ry) =     3.4685E-01    -2.8869E-08
      chi:   1  -0.1313146625   residue:    0.2576116445
      chi:   2   0.0078887790   residue:    0.2675580239
      chi:   3   0.0474276120   residue:    0.0051804742
      chi:   4   0.0474276120   residue:    0.0051804742
      Average number of iter. to solve lin. system:   11.1
      Total CPU time :    22.7 s

      atom #  1   q point #   1   iter #   4
 
     Pert. #  1: Fermi energy shift (Ry) =     2.8816E-01     5.2943E-09
      chi:   1  -0.1094225601   residue:    0.0218921024
      chi:   2   0.0282059865   residue:    0.0203172075
      chi:   3   0.0254348208   residue:    0.0219927913
      chi:   4   0.0254348208   residue:    0.0219927913
      Average number of iter. to solve lin. system:   14.2
      Total CPU time :    28.5 s

      atom #  1   q point #   1   iter #   5
 
     Pert. #  1: Fermi energy shift (Ry) =     2.7845E-01    -2.4398E-10
      chi:   1  -0.1057401927   residue:    0.0036823674
      chi:   2   0.0311903716   residue:    0.0029843851
      chi:   3   0.0219290840   residue:    0.0035057367
      chi:   4   0.0219290840   residue:    0.0035057367
      Average number of iter. to solve lin. system:   14.2
      Total CPU time :    34.3 s

      atom #  1   q point #   1   iter #   6
 
     Pert. #  1: Fermi energy shift (Ry) =     2.7456E-01    -8.0400E-10
      chi:   1  -0.1047166964   residue:    0.0010234963
      chi:   2   0.0286694967   residue:    0.0025208750
      chi:   3   0.0222455250   residue:    0.0003164410
      chi:   4   0.0222455250   residue:    0.0003164410
      Average number of iter. to solve lin. system:   15.6
      Total CPU time :    40.5 s

      atom #  1   q point #   1   iter #   7
 
     Pert. #  1: Fermi energy shift (Ry) =     2.7409E-01     3.6627E-10
      chi:   1  -0.1046261235   residue:    0.0000905728
      chi:   2   0.0283011975   residue:    0.0003682991
      chi:   3   0.0223033053   residue:    0.0000577802
      chi:   4   0.0223033053   residue:    0.0000577802
      Average number of iter. to solve lin. system:   14.2
      Total CPU time :    46.3 s

      atom #  1   q point #   1   iter #   8
 
     Pert. #  1: Fermi energy shift (Ry) =     2.7358E-01    -2.3764E-11
      chi:   1  -0.1055436418   residue:    0.0009175183
      chi:   2   0.0280109517   residue:    0.0002902459
      chi:   3   0.0225277748   residue:    0.0002244695
      chi:   4   0.0225277748   residue:    0.0002244695
      Average number of iter. to solve lin. system:   15.6
      Total CPU time :    52.4 s

      atom #  1   q point #   1   iter #   9
 
     Pert. #  1: Fermi energy shift (Ry) =     2.7282E-01     2.8487E-10
      chi:   1  -0.1062709929   residue:    0.0007273511
      chi:   2   0.0274305237   residue:    0.0005804280
      chi:   3   0.0227619337   residue:    0.0002341589
      chi:   4   0.0227619337   residue:    0.0002341589
      Average number of iter. to solve lin. system:   16.1
      Total CPU time :    58.6 s

      atom #  1   q point #   1   iter #  10
 
     Pert. #  1: Fermi energy shift (Ry) =     2.7277E-01    -1.8526E-10
      chi:   1  -0.1078677728   residue:    0.0015967799
      chi:   2   0.0261242133   residue:    0.0013063104
      chi:   3   0.0229985113   residue:    0.0002365776
      chi:   4   0.0229985113   residue:    0.0002365776
      Average number of iter. to solve lin. system:   17.2
      Total CPU time :    65.1 s

      atom #  1   q point #   1   iter #  11
 
     Pert. #  1: Fermi energy shift (Ry) =     2.7285E-01     8.6286E-11
      chi:   1  -0.1082782878   residue:    0.0004105150
      chi:   2   0.0256814100   residue:    0.0004428034
      chi:   3   0.0231153896   residue:    0.0001168783
      chi:   4   0.0231153896   residue:    0.0001168783
      Average number of iter. to solve lin. system:   16.0
      Total CPU time :    71.4 s

      atom #  1   q point #   1   iter #  12
 
     Pert. #  1: Fermi energy shift (Ry) =     2.7339E-01    -7.4342E-10
      chi:   1  -0.1095546232   residue:    0.0012763353
      chi:   2   0.0245095971   residue:    0.0011718129
      chi:   3   0.0236490296   residue:    0.0005336400
      chi:   4   0.0236490296   residue:    0.0005336400
      Average number of iter. to solve lin. system:   17.2
      Total CPU time :    78.0 s

      atom #  1   q point #   1   iter #  13
 
     Pert. #  1: Fermi energy shift (Ry) =     2.7340E-01     2.4760E-10
      chi:   1  -0.1096807539   residue:    0.0001261308
      chi:   2   0.0244043705   residue:    0.0001052265
      chi:   3   0.0236924751   residue:    0.0000434455
      chi:   4   0.0236924751   residue:    0.0000434455
      Average number of iter. to solve lin. system:   14.6
      Total CPU time :    83.9 s

      atom #  1   q point #   1   iter #  14
 
     Pert. #  1: Fermi energy shift (Ry) =     2.7319E-01    -3.2313E-10
      chi:   1  -0.1101935970   residue:    0.0005128431
      chi:   2   0.0238796401   residue:    0.0005247305
      chi:   3   0.0238518089   residue:    0.0001593338
      chi:   4   0.0238518089   residue:    0.0001593338
      Average number of iter. to solve lin. system:   17.1
      Total CPU time :    90.3 s

      atom #  1   q point #   1   iter #  15
 
     Pert. #  1: Fermi energy shift (Ry) =     2.7317E-01    -1.3018E-10
      chi:   1  -0.1101664952   residue:    0.0000271018
      chi:   2   0.0237001813   residue:    0.0001794587
      chi:   3   0.0238737326   residue:    0.0000219237
      chi:   4   0.0238737326   residue:    0.0000219237
      Average number of iter. to solve lin. system:   15.6
      Total CPU time :    96.3 s

      atom #  1   q point #   1   iter #  16
 
     Pert. #  1: Fermi energy shift (Ry) =     2.7317E-01     1.4991E-11
      chi:   1  -0.1101683104   residue:    0.0000018152
      chi:   2   0.0237139632   residue:    0.0000137819
      chi:   3   0.0238726887   residue:    0.0000010438
      chi:   4   0.0238726887   residue:    0.0000010438
      Average number of iter. to solve lin. system:   11.7
      Total CPU time :   101.4 s

      atom #  1   q point #   1   iter #  17
 
     Pert. #  1: Fermi energy shift (Ry) =     2.7322E-01    -5.8971E-11
      chi:   1  -0.1101035838   residue:    0.0000647266
      chi:   2   0.0236393252   residue:    0.0000746380
      chi:   3   0.0238900770   residue:    0.0000173883
      chi:   4   0.0238900770   residue:    0.0000173883
      Average number of iter. to solve lin. system:   15.1
      Total CPU time :   107.4 s

      atom #  1   q point #   1   iter #  18
 
     Pert. #  1: Fermi energy shift (Ry) =     2.7321E-01    -2.3848E-11
      chi:   1  -0.1101489800   residue:    0.0000453962
      chi:   2   0.0236325570   residue:    0.0000067682
      chi:   3   0.0238988424   residue:    0.0000087654
      chi:   4   0.0238988424   residue:    0.0000087654
      Average number of iter. to solve lin. system:   14.5
      Total CPU time :   113.1 s

      atom #  1   q point #   1   iter #  19
 
     Pert. #  1: Fermi energy shift (Ry) =     2.7311E-01     1.5616E-11
      chi:   1  -0.1105875268   residue:    0.0004385468
      chi:   2   0.0232000559   residue:    0.0004325011
      chi:   3   0.0240043776   residue:    0.0001055352
      chi:   4   0.0240043776   residue:    0.0001055352
      Average number of iter. to solve lin. system:   18.3
      Total CPU time :   119.7 s

      atom #  1   q point #   1   iter #  20
 
     Pert. #  1: Fermi energy shift (Ry) =     2.7311E-01     1.6902E-11
      chi:   1  -0.1105930726   residue:    0.0000055458
      chi:   2   0.0231674237   residue:    0.0000326322
      chi:   3   0.0240084677   residue:    0.0000040901
      chi:   4   0.0240084677   residue:    0.0000040901
      Average number of iter. to solve lin. system:   15.3
      Total CPU time :   125.7 s

      atom #  1   q point #   1   iter #  21
 
     Pert. #  1: Fermi energy shift (Ry) =     2.7310E-01     9.1918E-12
      chi:   1  -0.1105620749   residue:    0.0000309976
      chi:   2   0.0231838598   residue:    0.0000164361
      chi:   3   0.0240005293   residue:    0.0000079385
      chi:   4   0.0240005293   residue:    0.0000079385
      Average number of iter. to solve lin. system:   16.1
      Total CPU time :   131.9 s

      atom #  1   q point #   1   iter #  22
 
     Pert. #  1: Fermi energy shift (Ry) =     2.7307E-01    -3.0482E-11
      chi:   1  -0.1105441909   residue:    0.0000178841
      chi:   2   0.0232136299   residue:    0.0000297701
      chi:   3   0.0239909073   residue:    0.0000096220
      chi:   4   0.0239909073   residue:    0.0000096220
      Average number of iter. to solve lin. system:   16.1
      Total CPU time :   138.0 s

      atom #  1   q point #   1   iter #  23
 
     Pert. #  1: Fermi energy shift (Ry) =     2.7305E-01    -5.9202E-12
      chi:   1  -0.1105426204   residue:    0.0000015704
      chi:   2   0.0232185966   residue:    0.0000049667
      chi:   3   0.0239887144   residue:    0.0000021929
      chi:   4   0.0239887144   residue:    0.0000021929
      Average number of iter. to solve lin. system:   13.1
      Total CPU time :   143.4 s

      atom #  1   q point #   1   iter #  24
 
     Pert. #  1: Fermi energy shift (Ry) =     2.7304E-01     5.2249E-13
      chi:   1  -0.1105149891   residue:    0.0000276313
      chi:   2   0.0232406883   residue:    0.0000220918
      chi:   3   0.0239827113   residue:    0.0000060031
      chi:   4   0.0239827113   residue:    0.0000060031
      Average number of iter. to solve lin. system:   16.7
      Total CPU time :   149.7 s

      atom #  1   q point #   1   iter #  25
 
     Pert. #  1: Fermi energy shift (Ry) =     2.7304E-01    -1.0441E-11
      chi:   1  -0.1105078190   residue:    0.0000071701
      chi:   2   0.0232462266   residue:    0.0000055382
      chi:   3   0.0239812686   residue:    0.0000014427
      chi:   4   0.0239812686   residue:    0.0000014427
      Average number of iter. to solve lin. system:   14.9
      Total CPU time :   155.6 s

      atom #  1   q point #   1   iter #  26
 
     Pert. #  1: Fermi energy shift (Ry) =     2.7303E-01     1.7145E-12
      chi:   1  -0.1105083993   residue:    0.0000005803
      chi:   2   0.0232374071   residue:    0.0000088194
      chi:   3   0.0239824876   residue:    0.0000012190
      chi:   4   0.0239824876   residue:    0.0000012190
      Average number of iter. to solve lin. system:   15.9
      Total CPU time :   161.7 s

      atom #  1   q point #   1   iter #  27
 
     Pert. #  1: Fermi energy shift (Ry) =     2.7303E-01     1.0255E-11
      chi:   1  -0.1105184690   residue:    0.0000100697
      chi:   2   0.0232257781   residue:    0.0000116291
      chi:   3   0.0239853920   residue:    0.0000029044
      chi:   4   0.0239853920   residue:    0.0000029044
      Average number of iter. to solve lin. system:   16.3
      Total CPU time :   167.9 s

      atom #  1   q point #   1   iter #  28
 
     Pert. #  1: Fermi energy shift (Ry) =     2.7303E-01     1.5992E-12
      chi:   1  -0.1105183071   residue:    0.0000001619
      chi:   2   0.0232234645   residue:    0.0000023135
      chi:   3   0.0239857811   residue:    0.0000003891
      chi:   4   0.0239857811   residue:    0.0000003891
      Average number of iter. to solve lin. system:   12.9
      Total CPU time :   173.4 s

      atom #  1   q point #   1   iter #  29
 
     Pert. #  1: Fermi energy shift (Ry) =     2.7302E-01    -1.0668E-11
      chi:   1  -0.1105271383   residue:    0.0000088312
      chi:   2   0.0232089845   residue:    0.0000144800
      chi:   3   0.0239892186   residue:    0.0000034375
      chi:   4   0.0239892186   residue:    0.0000034375
      Average number of iter. to solve lin. system:   16.8
      Total CPU time :   179.7 s

      atom #  1   q point #   1   iter #  30
 
     Pert. #  1: Fermi energy shift (Ry) =     2.7302E-01     3.5378E-12
      chi:   1  -0.1105159536   residue:    0.0000111847
      chi:   2   0.0232107631   residue:    0.0000017786
      chi:   3   0.0239878507   residue:    0.0000013679
      chi:   4   0.0239878507   residue:    0.0000013679
      Average number of iter. to solve lin. system:   16.2
      Total CPU time :   185.8 s

      atom #  1   q point #   1   iter #  31
 
     Pert. #  1: Fermi energy shift (Ry) =     2.7301E-01    -5.6362E-13
      chi:   1  -0.1105102162   residue:    0.0000057374
      chi:   2   0.0232166276   residue:    0.0000058645
      chi:   3   0.0239861186   residue:    0.0000017321
      chi:   4   0.0239861186   residue:    0.0000017321
      Average number of iter. to solve lin. system:   16.2
      Total CPU time :   192.0 s

      atom #  1   q point #   1   iter #  32
 
     Pert. #  1: Fermi energy shift (Ry) =     2.7302E-01     1.3494E-12
      chi:   1  -0.1105128531   residue:    0.0000026369
      chi:   2   0.0232147194   residue:    0.0000019082
      chi:   3   0.0239864151   residue:    0.0000002964
      chi:   4   0.0239864151   residue:    0.0000002964
      Average number of iter. to solve lin. system:   15.3
      Total CPU time :   197.9 s

      atom #  1   q point #   1   iter #  33
 
     Pert. #  1: Fermi energy shift (Ry) =     2.7302E-01     1.6479E-12
      chi:   1  -0.1105126407   residue:    0.0000002124
      chi:   2   0.0232120977   residue:    0.0000026217
      chi:   3   0.0239862949   residue:    0.0000001202
      chi:   4   0.0239862949   residue:    0.0000001202
      Average number of iter. to solve lin. system:   14.6
      Total CPU time :   203.7 s

      atom #  1   q point #   1   iter #  34
 
     Pert. #  1: Fermi energy shift (Ry) =     2.7302E-01    -2.1183E-13
      chi:   1  -0.1105110085   residue:    0.0000016322
      chi:   2   0.0232133167   residue:    0.0000012190
      chi:   3   0.0239857814   residue:    0.0000005135
      chi:   4   0.0239857814   residue:    0.0000005135
      Average number of iter. to solve lin. system:   14.9
      Total CPU time :   209.6 s

      atom #  1   q point #   1   iter #  35
 
     Pert. #  1: Fermi energy shift (Ry) =     2.7302E-01     1.7386E-12
      chi:   1  -0.1105114792   residue:    0.0000004707
      chi:   2   0.0232160858   residue:    0.0000027691
      chi:   3   0.0239848524   residue:    0.0000009290
      chi:   4   0.0239848524   residue:    0.0000009290
      Average number of iter. to solve lin. system:   15.3
      Total CPU time :   215.6 s

      atom #  1   q point #   1   iter #  36
 
     Pert. #  1: Fermi energy shift (Ry) =     2.7302E-01     7.1008E-13
      chi:   1  -0.1105127199   residue:    0.0000012407
      chi:   2   0.0232152067   residue:    0.0000008790
      chi:   3   0.0239851895   residue:    0.0000003371
      chi:   4   0.0239851895   residue:    0.0000003371
      Average number of iter. to solve lin. system:   14.7
      Total CPU time :   221.4 s

      atom #  1   q point #   1   iter #  37
 
     Pert. #  1: Fermi energy shift (Ry) =     2.7302E-01    -2.6450E-12
      chi:   1  -0.1105198845   residue:    0.0000071645
      chi:   2   0.0232092639   residue:    0.0000059428
      chi:   3   0.0239875131   residue:    0.0000023236
      chi:   4   0.0239875131   residue:    0.0000023236
      Average number of iter. to solve lin. system:   17.1
      Total CPU time :   227.8 s

      atom #  1   q point #   1   iter #  38
 
     Pert. #  1: Fermi energy shift (Ry) =     2.7302E-01    -9.7880E-14
      chi:   1  -0.1105209901   residue:    0.0000011056
      chi:   2   0.0232069908   residue:    0.0000022731
      chi:   3   0.0239884421   residue:    0.0000009291
      chi:   4   0.0239884421   residue:    0.0000009291
      Average number of iter. to solve lin. system:   15.8
      Total CPU time :   233.9 s

      atom #  1   q point #   1   iter #  39
 
     Pert. #  1: Fermi energy shift (Ry) =     2.7301E-01    -1.6041E-12
      chi:   1  -0.1105221285   residue:    0.0000011384
      chi:   2   0.0232065129   residue:    0.0000004779
      chi:   3   0.0239887195   residue:    0.0000002773
      chi:   4   0.0239887195   residue:    0.0000002773
      Average number of iter. to solve lin. system:   15.2
      Total CPU time :   239.8 s

      atom #  1   q point #   1   iter #  40
 
     Pert. #  1: Fermi energy shift (Ry) =     2.7301E-01     1.7622E-13
      chi:   1  -0.1105228190   residue:    0.0000006905
      chi:   2   0.0232060830   residue:    0.0000004300
      chi:   3   0.0239888484   residue:    0.0000001289
      chi:   4   0.0239888484   residue:    0.0000001289
      Average number of iter. to solve lin. system:   14.8
      Total CPU time :   245.7 s

      atom #  1   q point #   1   iter #  41
 
     Pert. #  1: Fermi energy shift (Ry) =     2.7301E-01     3.2314E-13
      chi:   1  -0.1105257513   residue:    0.0000029323
      chi:   2   0.0232043198   residue:    0.0000017631
      chi:   3   0.0239892191   residue:    0.0000003707
      chi:   4   0.0239892191   residue:    0.0000003707
      Average number of iter. to solve lin. system:   17.0
      Total CPU time :   252.1 s

      atom #  1   q point #   1   iter #  42
 
     Pert. #  1: Fermi energy shift (Ry) =     2.7301E-01     2.3114E-13
      chi:   1  -0.1105262336   residue:    0.0000004824
      chi:   2   0.0232031258   residue:    0.0000011941
      chi:   3   0.0239895225   residue:    0.0000003034
      chi:   4   0.0239895225   residue:    0.0000003034
      Average number of iter. to solve lin. system:   15.8
      Total CPU time :   258.2 s

      atom #  1   q point #   1   iter #  43
 
     Pert. #  1: Fermi energy shift (Ry) =     2.7301E-01     2.6996E-14
      chi:   1  -0.1105264653   residue:    0.0000002317
      chi:   2   0.0232028460   residue:    0.0000002798
      chi:   3   0.0239896105   residue:    0.0000000880
      chi:   4   0.0239896105   residue:    0.0000000880
      Average number of iter. to solve lin. system:   14.3
      Total CPU time :   263.9 s

      atom #  1   q point #   1   iter #  44
 
     Pert. #  1: Fermi energy shift (Ry) =     2.7301E-01     5.8839E-13
      chi:   1  -0.1105283004   residue:    0.0000018351
      chi:   2   0.0231992943   residue:    0.0000035517
      chi:   3   0.0239905924   residue:    0.0000009818
      chi:   4   0.0239905924   residue:    0.0000009818
      Average number of iter. to solve lin. system:   17.6
      Total CPU time :   270.4 s

      atom #  1   q point #   1   iter #  45
 
     Pert. #  1: Fermi energy shift (Ry) =     2.7301E-01     1.0694E-12
      chi:   1  -0.1105285881   residue:    0.0000002877
      chi:   2   0.0231992304   residue:    0.0000000639
      chi:   3   0.0239905312   residue:    0.0000000611
      chi:   4   0.0239905312   residue:    0.0000000611
      Average number of iter. to solve lin. system:   15.8
      Total CPU time :   276.5 s

      atom #  1   q point #   1   iter #  46
 
     Pert. #  1: Fermi energy shift (Ry) =     2.7301E-01     4.6101E-13
      chi:   1  -0.1105285264   residue:    0.0000000617
      chi:   2   0.0231991997   residue:    0.0000000307
      chi:   3   0.0239905100   residue:    0.0000000212
      chi:   4   0.0239905100   residue:    0.0000000212
      Average number of iter. to solve lin. system:   12.9
      Total CPU time :   281.9 s
      
      =--------------------------------------------=
             CONVERGENCE HAS BEEN REACHED
      =--------------------------------------------=


     =-------------------------------------------------------------=

     Calculation for q #   2 = (   0.5000000  -0.2886751   0.0000000 )

     =-------------------------------------------------------------=

     Performing NSCF calculation at all points k and k+q...
     Subspace diagonalization in iterative solution of the eigenvalue problem:
     a serial algorithm will be used

 
     G-vector sticks info
     --------------------
     sticks:   dense  smooth     PW     G-vecs:    dense   smooth      PW
     Sum         847     349    127                32259     8171    1925
 
     Using Slab Decomposition
 


     bravais-lattice index     =            0
     lattice parameter (alat)  =       5.2648  a.u.
     unit-cell volume          =     200.1385 (a.u.)^3
     number of atoms/cell      =            4
     number of atomic types    =            3
     number of electrons       =        42.00
     number of Kohn-Sham states=           28
     kinetic-energy cutoff     =      45.0000  Ry
     charge density cutoff     =     450.0000  Ry
     Exchange-correlation= PBESOL
                           (   1   4  10   8   0   0   0)
     Hubbard projectors: ortho-atomic

     Internal variables: lda_plus_u = T, lda_plus_u_kind = 2

     celldm(1)=   5.264800  celldm(2)=   0.000000  celldm(3)=   0.000000
     celldm(4)=   0.000000  celldm(5)=   0.000000  celldm(6)=   0.000000

     crystal axes: (cart. coord. in units of alat)
               a(1) = (   0.500000   0.866025   0.000000 )  
               a(2) = (  -0.500000   0.866025   0.000000 )  
               a(3) = (   0.000000   0.000000   1.583632 )  

     reciprocal axes: (cart. coord. in units 2 pi/alat)
               b(1) = (  1.000000  0.577350  0.000000 )  
               b(2) = ( -1.000000  0.577350  0.000000 )  
               b(3) = (  0.000000  0.000000  0.631460 )  


     PseudoPot. # 1 for Mn read from file:
     ../../files/pseudo/mn_pbesol_v1.5.uspp.F.UPF
     MD5 check sum: 0716d5f563e6e95a34f9080f4c78c109
     Pseudo is Ultrasoft + core correction, Zval = 15.0
     Generated by new atomic code, or converted to UPF format
     Using radial grid of  859 points,  6 beta functions with: 
                l(1) =   0
                l(2) =   0
                l(3) =   1
                l(4) =   1
                l(5) =   2
                l(6) =   2
     Q(r) pseudized with  8 coefficients,  rinner =    0.950   0.950   0.950
                                                       0.950   0.950

     PseudoPot. # 2 for Mn read from file:
     ../../files/pseudo/mn_pbesol_v1.5.uspp.F.UPF
     MD5 check sum: 0716d5f563e6e95a34f9080f4c78c109
     Pseudo is Ultrasoft + core correction, Zval = 15.0
     Generated by new atomic code, or converted to UPF format
     Using radial grid of  859 points,  6 beta functions with: 
                l(1) =   0
                l(2) =   0
                l(3) =   1
                l(4) =   1
                l(5) =   2
                l(6) =   2
     Q(r) pseudized with  8 coefficients,  rinner =    0.950   0.950   0.950
                                                       0.950   0.950

     PseudoPot. # 3 for O  read from file:
     ../../files/pseudo/O.pbesol-n-kjpaw_psl.0.1.UPF
     MD5 check sum: 126339daddaa87477ab44acfa0b5aa00
     Pseudo is Projector augmented-wave + core cor, Zval =  6.0
     Generated using "atomic" code by A. Dal Corso  v.6.0 svn rev. 13079
     Shape of augmentation charge: BESSEL
     Using radial grid of 1095 points,  4 beta functions with: 
                l(1) =   0
                l(2) =   0
                l(3) =   1
                l(4) =   1
     Q(r) pseudized with 0 coefficients 


     atomic species   valence    mass     pseudopotential
        Mn1           15.00     1.00000     Mn( 1.00)
        Mn2           15.00     1.00000     Mn( 1.00)
        O              6.00     1.00000     O ( 1.00)

     Starting magnetic structure 
     atomic species   magnetization
        Mn1          0.400
        Mn2         -0.400
        O            0.000

     12 Sym. Ops., with inversion, found



   Cartesian axes

     site n.     atom                  positions (alat units)
         1           Mn1 tau(   1) = (   0.0000000   0.0000000   0.0000000  )
         2           Mn2 tau(   2) = (   0.0000000   0.0000000   0.7918162  )
         3           O   tau(   3) = (   0.0000000   0.5773503   1.1877244  )
         4           O   tau(   4) = (   0.0000000   1.1547005   0.3959081  )

     number of k points=    34  Marzari-Vanderbilt smearing, width (Ry)=  0.0100
                       cart. coord. in units 2pi/alat
        k(    1) = (   0.0000000   0.0000000   0.0000000), wk =   0.0208333
        k(    2) = (   0.5000000  -0.2886751   0.0000000), wk =   0.0000000
        k(    3) = (   0.0000000   0.0000000   0.2104865), wk =   0.0416667
        k(    4) = (   0.5000000  -0.2886751   0.2104865), wk =   0.0000000
        k(    5) = (  -0.2500000   0.1443376   0.0000000), wk =   0.0416667
        k(    6) = (   0.2500000  -0.1443376   0.0000000), wk =   0.0000000
        k(    7) = (  -0.2500000   0.1443376   0.2104865), wk =   0.0416667
        k(    8) = (   0.2500000  -0.1443376   0.2104865), wk =   0.0000000
        k(    9) = (   0.5000000  -0.2886751   0.0000000), wk =   0.0208333
        k(   10) = (   1.0000000  -0.5773503   0.0000000), wk =   0.0000000
        k(   11) = (   0.5000000  -0.2886751   0.2104865), wk =   0.0416667
        k(   12) = (   1.0000000  -0.5773503   0.2104865), wk =   0.0000000
        k(   13) = (   0.7500000  -0.1443376   0.0000000), wk =   0.0833333
        k(   14) = (   1.2500000  -0.4330127   0.0000000), wk =   0.0000000
        k(   15) = (   0.7500000  -0.1443376   0.2104865), wk =   0.0833333
        k(   16) = (   1.2500000  -0.4330127   0.2104865), wk =   0.0000000
        k(   17) = (   0.0000000   0.2886751   0.0000000), wk =   0.0833333
        k(   18) = (   0.5000000   0.0000000   0.0000000), wk =   0.0000000
        k(   19) = (   0.0000000   0.2886751  -0.2104865), wk =   0.0833333
        k(   20) = (   0.5000000   0.0000000  -0.2104865), wk =   0.0000000
        k(   21) = (   0.2500000   0.1443376  -0.2104865), wk =   0.0833333
        k(   22) = (   0.7500000  -0.1443376  -0.2104865), wk =   0.0000000
        k(   23) = (  -0.2500000   0.1443376  -0.2104865), wk =   0.0416667
        k(   24) = (   0.2500000  -0.1443376  -0.2104865), wk =   0.0000000
        k(   25) = (   0.0000000  -0.5773503   0.0000000), wk =   0.0416667
        k(   26) = (   0.5000000  -0.8660254   0.0000000), wk =   0.0000000
        k(   27) = (   0.0000000  -0.5773503  -0.2104865), wk =   0.0833333
        k(   28) = (   0.5000000  -0.8660254  -0.2104865), wk =   0.0000000
        k(   29) = (   0.7500000   0.1443376   0.0000000), wk =   0.0416667
        k(   30) = (   1.2500000  -0.1443376   0.0000000), wk =   0.0000000
        k(   31) = (  -0.2500000  -0.7216878  -0.2104865), wk =   0.0833333
        k(   32) = (   0.2500000  -1.0103630  -0.2104865), wk =   0.0000000
        k(   33) = (   0.7500000   0.1443376  -0.2104865), wk =   0.0833333
        k(   34) = (   1.2500000  -0.1443376  -0.2104865), wk =   0.0000000

     Dense  grid:    32259 G-vectors     FFT dimensions: (  36,  36,  60)

     Smooth grid:     8171 G-vectors     FFT dimensions: (  24,  24,  36)

     Estimated max dynamical RAM per process >     115.79 MB

     Check: negative core charge=   -0.000041

     The potential is recalculated from file :
     ./tmp/HP/MnO.save/charge-density


     STARTING HUBBARD OCCUPATIONS:

     =================== HUBBARD OCCUPATIONS ===================
     ------------------------ ATOM    1 ------------------------
     Tr[ns(  1)] (up, down, total) =   3.58644  2.19537  5.78181
     Atomic magnetic moment for atom   1 =   1.39108
     SPIN  1
     eigenvalues:
       0.461  0.461  0.787  0.939  0.939
     eigenvectors (columns):
      -0.000 -0.000  1.000 -0.000  0.000
       0.807  0.049  0.000 -0.473 -0.352
      -0.049  0.807  0.000  0.352 -0.473
       0.036 -0.588  0.000  0.483 -0.648
      -0.588 -0.036  0.000 -0.648 -0.483
     occupation matrix ns (before diag.):
       0.787 -0.000 -0.000 -0.000 -0.000
      -0.000  0.627 -0.000  0.000  0.227
      -0.000 -0.000  0.627  0.227 -0.000
      -0.000  0.000  0.227  0.773  0.000
      -0.000  0.227 -0.000  0.000  0.773
     SPIN  2
     eigenvalues:
       0.251  0.251  0.512  0.590  0.590
     eigenvectors (columns):
      -0.000 -0.000  1.000 -0.000  0.000
       0.713  0.209  0.000 -0.507 -0.436
      -0.209  0.713  0.000  0.436 -0.507
       0.188 -0.642  0.000  0.485 -0.564
      -0.642 -0.188  0.000 -0.564 -0.485
     occupation matrix ns (before diag.):
       0.512 -0.000 -0.000 -0.000 -0.000
      -0.000  0.403 -0.000  0.000  0.168
      -0.000 -0.000  0.403  0.168 -0.000
      -0.000  0.000  0.168  0.439  0.000
      -0.000  0.168 -0.000  0.000  0.439
     ------------------------ ATOM    2 ------------------------
     Tr[ns(  2)] (up, down, total) =   2.19537  3.58644  5.78181
     Atomic magnetic moment for atom   2 =  -1.39107
     SPIN  1
     eigenvalues:
       0.251  0.251  0.512  0.590  0.590
     eigenvectors (columns):
      -0.000 -0.000  1.000 -0.000 -0.000
       0.483 -0.565 -0.000 -0.641 -0.191
      -0.565 -0.483 -0.000  0.191 -0.641
      -0.508 -0.435  0.000 -0.212  0.713
       0.435 -0.508  0.000  0.713  0.212
     occupation matrix ns (before diag.):
       0.512 -0.000 -0.000 -0.000 -0.000
      -0.000  0.403 -0.000  0.000 -0.168
      -0.000 -0.000  0.403 -0.168 -0.000
      -0.000  0.000 -0.168  0.439  0.000
      -0.000 -0.168 -0.000  0.000  0.439
     SPIN  2
     eigenvalues:
       0.461  0.461  0.787  0.939  0.939
     eigenvectors (columns):
      -0.000 -0.000  1.000 -0.000 -0.000
       0.406 -0.699 -0.000 -0.557 -0.191
      -0.699 -0.406 -0.000  0.191 -0.557
      -0.509 -0.296  0.000 -0.262  0.764
       0.296 -0.509  0.000  0.764  0.262
     occupation matrix ns (before diag.):
       0.787 -0.000 -0.000 -0.000 -0.000
      -0.000  0.627 -0.000  0.000 -0.227
      -0.000 -0.000  0.627 -0.227 -0.000
      -0.000  0.000 -0.227  0.773  0.000
      -0.000 -0.227 -0.000  0.000  0.773
     ------------------------ ATOM    3 ------------------------
     Tr[ns(  3)] (up, down, total) =   2.32721  2.32721  4.65442
     Atomic magnetic moment for atom   3 =  -0.00000
     SPIN  1
     eigenvalues:
       0.776  0.776  0.776
     eigenvectors (columns):
       0.000  0.000  1.000
      -0.238 -0.971  0.000
       0.971 -0.238 -0.000
     occupation matrix ns (before diag.):
       0.776  0.000 -0.000
       0.000  0.776  0.000
      -0.000  0.000  0.776
     SPIN  2
     eigenvalues:
       0.776  0.776  0.776
     eigenvectors (columns):
       0.000  0.000  1.000
      -0.238 -0.971  0.000
       0.971 -0.238 -0.000
     occupation matrix ns (before diag.):
       0.776  0.000 -0.000
       0.000  0.776  0.000
      -0.000  0.000  0.776
     ------------------------ ATOM    4 ------------------------
     Tr[ns(  4)] (up, down, total) =   2.32721  2.32721  4.65442
     Atomic magnetic moment for atom   4 =  -0.00000
     SPIN  1
     eigenvalues:
       0.776  0.776  0.776
     eigenvectors (columns):
       0.000  0.000  1.000
      -0.238 -0.971  0.000
       0.971 -0.238 -0.000
     occupation matrix ns (before diag.):
       0.776  0.000 -0.000
       0.000  0.776  0.000
      -0.000  0.000  0.776
     SPIN  2
     eigenvalues:
       0.776  0.776  0.776
     eigenvectors (columns):
       0.000  0.000  1.000
      -0.238 -0.971  0.000
       0.971 -0.238 -0.000
     occupation matrix ns (before diag.):
       0.776  0.000 -0.000
       0.000  0.776  0.000
      -0.000  0.000  0.776

     Number of occupied Hubbard levels =   20.8725

     Atomic wfc used for Hubbard projectors are orthogonalized

     Starting wfcs are   34 atomic wfcs
     Checking if some PAW data can be deallocated... 

     Band Structure Calculation
     Davidson diagonalization with overlap

     ethr =  1.00E-11,  avg # of iterations = 15.5

     total cpu time spent up to now is       -1.0 secs

     End of band structure calculation

 ------ SPIN UP ------------


          k = 0.0000 0.0000 0.0000 (  1037 PWs)   bands (ev):

   -59.1421 -57.5401 -28.5502 -27.9224 -27.9224 -26.6446 -26.3108 -26.3108
    -2.5834  -0.4095   9.9893  12.3725  12.3725  15.5312  15.5312  15.7398
    16.3620  18.4675  18.4675  19.5498  19.5498  21.7486  21.7486  23.3792
    23.9650  23.9650  24.1032  26.4749

          k = 0.5000-0.2887 0.0000 (  1012 PWs)   bands (ev):

   -59.1133 -57.5099 -28.4879 -28.1622 -27.9765 -26.6115 -26.5647 -26.3678
    -1.0624  -0.5555   9.9640  12.3063  12.3603  12.5011  13.2684  14.1986
    16.4629  19.8811  20.2982  20.5156  21.1283  21.7122  22.0353  22.6836
    23.7745  24.2348  27.6734  32.6857

          k = 0.0000 0.0000 0.2105 (  1026 PWs)   bands (ev):

   -59.1376 -57.5461 -28.3832 -27.9201 -27.9201 -26.8337 -26.3137 -26.3137
    -2.1117  -1.0440  11.1771  12.9225  12.9225  13.7369  14.3924  14.3924
    18.0824  18.8915  18.8915  20.3922  20.3922  21.2883  21.5250  21.5250
    23.2998  23.2998  25.5483  27.0272

          k = 0.5000-0.2887 0.2105 (  1012 PWs)   bands (ev):

   -59.1089 -57.5157 -28.3316 -28.1573 -27.9737 -26.7869 -26.5713 -26.3713
    -0.9262  -0.6725  10.2753  11.1236  12.7704  13.2605  13.4045  13.6957
    17.5196  19.6239  20.3718  20.3800  21.6003  21.8980  21.9291  22.1606
    23.2124  23.7367  27.9596  30.0606

          k =-0.2500 0.1443 0.0000 (  1022 PWs)   bands (ev):

   -59.1277 -57.5250 -28.5190 -28.0432 -27.9495 -26.6278 -26.4394 -26.3393
    -1.7833  -0.6044  11.1442  12.1568  12.5089  12.5104  14.0423  14.4511
    16.6643  19.2028  19.7186  20.4938  20.6361  21.7454  21.9834  22.9399
    23.2259  23.6462  26.5945  29.9536

          k = 0.2500-0.1443 0.0000 (  1022 PWs)   bands (ev):

   -59.1277 -57.5250 -28.5190 -28.0432 -27.9495 -26.6278 -26.4394 -26.3393
    -1.7833  -0.6044  11.1442  12.1568  12.5089  12.5104  14.0423  14.4511
    16.6643  19.2028  19.7186  20.4938  20.6361  21.7454  21.9834  22.9399
    23.2259  23.6462  26.5945  29.9536

          k =-0.2500 0.1443 0.2105 (  1026 PWs)   bands (ev):

   -59.1233 -57.5309 -28.3575 -28.0398 -27.9470 -26.8102 -26.4436 -26.3426
    -1.4947  -0.9065  11.0293  11.7086  12.9349  13.2745  13.9326  14.0874
    17.7889  19.5494  19.7032  19.9880  20.4147  21.3731  21.7537  22.1742
    23.0321  23.3273  27.6289  29.4816

          k = 0.2500-0.1443 0.2105 (  1026 PWs)   bands (ev):

   -59.1233 -57.5309 -28.3574 -28.0399 -27.9470 -26.8101 -26.4437 -26.3426
    -1.4951  -0.9063  11.0549  11.7002  12.9509  13.2874  13.9103  14.0337
    17.8288  19.2874  19.4653  20.1337  20.9662  21.5234  21.8644  22.1928
    22.5174  23.3139  27.7097  29.4249

          k = 0.5000-0.2887 0.0000 (  1012 PWs)   bands (ev):

   -59.1133 -57.5099 -28.4879 -28.1622 -27.9765 -26.6115 -26.5647 -26.3678
    -1.0624  -0.5555   9.9640  12.3063  12.3603  12.5011  13.2684  14.1986
    16.4629  19.8811  20.2982  20.5156  21.1283  21.7122  22.0353  22.6836
    23.7745  24.2348  27.6734  32.6857

          k = 1.0000-0.5774 0.0000 (  1037 PWs)   bands (ev):

   -59.1421 -57.5401 -28.5502 -27.9224 -27.9224 -26.6446 -26.3108 -26.3108
    -2.5834  -0.4095   9.9893  12.3725  12.3725  15.5312  15.5312  15.7398
    16.3620  18.4675  18.4675  19.5498  19.5498  21.7486  21.7486  23.3792
    23.9650  23.9650  24.1032  26.4749

          k = 0.5000-0.2887 0.2105 (  1012 PWs)   bands (ev):

   -59.1089 -57.5157 -28.3316 -28.1573 -27.9737 -26.7869 -26.5713 -26.3713
    -0.9262  -0.6725  10.2753  11.1236  12.7704  13.2605  13.4045  13.6957
    17.5196  19.6239  20.3718  20.3800  21.6003  21.8980  21.9291  22.1606
    23.2124  23.7367  27.9596  30.0606

          k = 1.0000-0.5774 0.2105 (  1026 PWs)   bands (ev):

   -59.1376 -57.5461 -28.3832 -27.9201 -27.9201 -26.8337 -26.3137 -26.3137
    -2.1117  -1.0440  11.1771  12.9225  12.9225  13.7369  14.3924  14.3924
    18.0824  18.8915  18.8915  20.3922  20.3922  21.2883  21.5250  21.5250
    23.2998  23.2998  25.5483  27.0272

          k = 0.7500-0.1443 0.0000 (  1012 PWs)   bands (ev):

   -59.1133 -57.5099 -28.4879 -28.1162 -28.0232 -26.6108 -26.5166 -26.4176
    -0.8874  -0.7490  10.8093  11.6115  12.2658  12.5225  12.9917  13.7138
    17.6196  19.6304  20.2206  20.8367  21.1359  21.8418  22.1825  22.5593
    22.7879  23.6153  29.3532  32.4824

          k = 1.2500-0.4330 0.0000 (  1022 PWs)   bands (ev):

   -59.1277 -57.5250 -28.5190 -28.0432 -27.9495 -26.6278 -26.4394 -26.3393
    -1.7833  -0.6044  11.1442  12.1568  12.5089  12.5104  14.0423  14.4511
    16.6643  19.2028  19.7186  20.4938  20.6361  21.7454  21.9834  22.9399
    23.2259  23.6462  26.5945  29.9536

          k = 0.7500-0.1443 0.2105 (  1020 PWs)   bands (ev):

   -59.1089 -57.5157 -28.3315 -28.1120 -28.0199 -26.7867 -26.5219 -26.4217
    -0.8399  -0.7707  10.8831  11.1893  12.5137  12.6821  13.2365  13.7105
    18.4950  19.2432  20.0556  20.4448  21.0710  21.5738  21.9236  22.1199
    23.3766  23.8627  29.5116  31.1783

          k = 1.2500-0.4330 0.2105 (  1026 PWs)   bands (ev):

   -59.1233 -57.5309 -28.3575 -28.0398 -27.9470 -26.8102 -26.4436 -26.3426
    -1.4947  -0.9065  11.0293  11.7086  12.9349  13.2745  13.9326  14.0874
    17.7889  19.5494  19.7032  19.9880  20.4147  21.3731  21.7537  22.1742
    23.0321  23.3273  27.6289  29.4816

          k = 0.0000 0.2887 0.0000 (  1022 PWs)   bands (ev):

   -59.1277 -57.5250 -28.5190 -28.0432 -27.9495 -26.6278 -26.4394 -26.3393
    -1.7833  -0.6044  11.1442  12.1568  12.5089  12.5104  14.0423  14.4511
    16.6643  19.2028  19.7186  20.4938  20.6361  21.7454  21.9834  22.9399
    23.2259  23.6462  26.5945  29.9536

          k = 0.5000 0.0000 0.0000 (  1012 PWs)   bands (ev):

   -59.1133 -57.5099 -28.4879 -28.1162 -28.0232 -26.6108 -26.5166 -26.4176
    -0.8874  -0.7490  10.8093  11.6115  12.2658  12.5225  12.9917  13.7138
    17.6196  19.6304  20.2206  20.8367  21.1359  21.8418  22.1825  22.5593
    22.7879  23.6153  29.3532  32.4824

          k = 0.0000 0.2887-0.2105 (  1026 PWs)   bands (ev):

   -59.1233 -57.5309 -28.3575 -28.0398 -27.9470 -26.8102 -26.4436 -26.3426
    -1.4947  -0.9065  11.0293  11.7086  12.9349  13.2745  13.9326  14.0874
    17.7889  19.5494  19.7032  19.9880  20.4147  21.3731  21.7537  22.1742
    23.0321  23.3273  27.6289  29.4816

          k = 0.5000 0.0000-0.2105 (  1020 PWs)   bands (ev):

   -59.1089 -57.5157 -28.3315 -28.1120 -28.0199 -26.7867 -26.5219 -26.4217
    -0.8399  -0.7707  10.8831  11.1893  12.5137  12.6821  13.2365  13.7105
    18.4950  19.2432  20.0556  20.4448  21.0710  21.5738  21.9236  22.1199
    23.3766  23.8627  29.5116  31.1783

          k = 0.2500 0.1443-0.2105 (  1026 PWs)   bands (ev):

   -59.1233 -57.5309 -28.3574 -28.0399 -27.9470 -26.8101 -26.4437 -26.3426
    -1.4951  -0.9063  11.0549  11.7002  12.9509  13.2874  13.9103  14.0337
    17.8288  19.2874  19.4653  20.1337  20.9662  21.5234  21.8644  22.1928
    22.5174  23.3139  27.7097  29.4249

          k = 0.7500-0.1443-0.2105 (  1020 PWs)   bands (ev):

   -59.1089 -57.5157 -28.3315 -28.1120 -28.0199 -26.7867 -26.5219 -26.4217
    -0.8399  -0.7707  10.8831  11.1893  12.5137  12.6821  13.2365  13.7105
    18.4950  19.2432  20.0556  20.4448  21.0710  21.5738  21.9236  22.1199
    23.3766  23.8627  29.5116  31.1783

          k =-0.2500 0.1443-0.2105 (  1026 PWs)   bands (ev):

   -59.1233 -57.5309 -28.3574 -28.0399 -27.9470 -26.8101 -26.4437 -26.3426
    -1.4951  -0.9063  11.0549  11.7002  12.9509  13.2874  13.9103  14.0337
    17.8288  19.2874  19.4653  20.1337  20.9662  21.5234  21.8644  22.1928
    22.5174  23.3139  27.7097  29.4249

          k = 0.2500-0.1443-0.2105 (  1026 PWs)   bands (ev):

   -59.1233 -57.5309 -28.3575 -28.0398 -27.9470 -26.8102 -26.4436 -26.3426
    -1.4947  -0.9065  11.0293  11.7086  12.9349  13.2745  13.9326  14.0874
    17.7889  19.5494  19.7032  19.9880  20.4147  21.3731  21.7537  22.1742
    23.0321  23.3273  27.6289  29.4816

          k = 0.0000-0.5774 0.0000 (  1012 PWs)   bands (ev):

   -59.1133 -57.5099 -28.4879 -28.1622 -27.9765 -26.6115 -26.5647 -26.3678
    -1.0624  -0.5555   9.9640  12.3063  12.3603  12.5011  13.2684  14.1986
    16.4629  19.8811  20.2982  20.5156  21.1283  21.7122  22.0353  22.6836
    23.7745  24.2348  27.6734  32.6857

          k = 0.5000-0.8660 0.0000 (  1012 PWs)   bands (ev):

   -59.1133 -57.5099 -28.4879 -28.1622 -27.9765 -26.6115 -26.5647 -26.3678
    -1.0624  -0.5555   9.9640  12.3063  12.3603  12.5011  13.2684  14.1986
    16.4629  19.8811  20.2982  20.5156  21.1283  21.7122  22.0353  22.6836
    23.7745  24.2348  27.6734  32.6857

          k = 0.0000-0.5774-0.2105 (  1012 PWs)   bands (ev):

   -59.1089 -57.5157 -28.3316 -28.1573 -27.9737 -26.7869 -26.5713 -26.3713
    -0.9262  -0.6725  10.2753  11.1236  12.7704  13.2605  13.4045  13.6957
    17.5196  19.6239  20.3718  20.3800  21.6003  21.8980  21.9291  22.1606
    23.2124  23.7367  27.9596  30.0606

          k = 0.5000-0.8660-0.2105 (  1012 PWs)   bands (ev):

   -59.1089 -57.5157 -28.3316 -28.1573 -27.9737 -26.7869 -26.5713 -26.3713
    -0.9262  -0.6725  10.2753  11.1236  12.7704  13.2605  13.4045  13.6957
    17.5196  19.6239  20.3718  20.3800  21.6003  21.8980  21.9291  22.1606
    23.2124  23.7367  27.9596  30.0606

          k = 0.7500 0.1443 0.0000 (  1012 PWs)   bands (ev):

   -59.1133 -57.5099 -28.4879 -28.1162 -28.0232 -26.6108 -26.5166 -26.4176
    -0.8874  -0.7490  10.8093  11.6115  12.2658  12.5225  12.9917  13.7138
    17.6196  19.6304  20.2206  20.8367  21.1359  21.8418  22.1825  22.5593
    22.7879  23.6153  29.3532  32.4824

          k = 1.2500-0.1443 0.0000 (  1012 PWs)   bands (ev):

   -59.1133 -57.5099 -28.4879 -28.1162 -28.0232 -26.6108 -26.5166 -26.4176
    -0.8874  -0.7490  10.8093  11.6115  12.2658  12.5225  12.9917  13.7138
    17.6196  19.6304  20.2206  20.8367  21.1359  21.8418  22.1825  22.5593
    22.7879  23.6153  29.3532  32.4824

          k =-0.2500-0.7217-0.2105 (  1020 PWs)   bands (ev):

   -59.1089 -57.5157 -28.3315 -28.1120 -28.0199 -26.7867 -26.5219 -26.4217
    -0.8399  -0.7707  10.8831  11.1893  12.5137  12.6821  13.2365  13.7105
    18.4950  19.2432  20.0556  20.4448  21.0710  21.5738  21.9236  22.1199
    23.3766  23.8627  29.5116  31.1783

          k = 0.2500-1.0104-0.2105 (  1026 PWs)   bands (ev):

   -59.1233 -57.5309 -28.3574 -28.0399 -27.9470 -26.8101 -26.4437 -26.3426
    -1.4951  -0.9063  11.0549  11.7002  12.9509  13.2874  13.9103  14.0337
    17.8288  19.2874  19.4653  20.1337  20.9662  21.5234  21.8644  22.1928
    22.5174  23.3139  27.7097  29.4249

          k = 0.7500 0.1443-0.2105 (  1020 PWs)   bands (ev):

   -59.1089 -57.5157 -28.3315 -28.1120 -28.0199 -26.7867 -26.5219 -26.4217
    -0.8399  -0.7707  10.8831  11.1893  12.5137  12.6821  13.2365  13.7105
    18.4950  19.2432  20.0556  20.4448  21.0710  21.5738  21.9236  22.1199
    23.3766  23.8627  29.5116  31.1783

          k = 1.2500-0.1443-0.2105 (  1020 PWs)   bands (ev):

   -59.1089 -57.5157 -28.3315 -28.1120 -28.0199 -26.7867 -26.5219 -26.4217
    -0.8399  -0.7707  10.8831  11.1893  12.5137  12.6821  13.2365  13.7105
    18.4950  19.2432  20.0556  20.4448  21.0710  21.5738  21.9236  22.1199
    23.3766  23.8627  29.5116  31.1783

 ------ SPIN DOWN ----------


          k = 0.0000 0.0000 0.0000 (  1037 PWs)   bands (ev):

   -59.1422 -57.5400 -28.5502 -27.9225 -27.9225 -26.6446 -26.3107 -26.3107
    -2.5834  -0.4095   9.9894  12.3725  12.3725  15.5312  15.5312  15.7398
    16.3620  18.4674  18.4674  19.5498  19.5498  21.7486  21.7486  23.3792
    23.9650  23.9650  24.1032  26.4749

          k = 0.5000-0.2887 0.0000 (  1012 PWs)   bands (ev):

   -59.1134 -57.5099 -28.4880 -28.1622 -27.9765 -26.6115 -26.5646 -26.3677
    -1.0624  -0.5555   9.9641  12.3063  12.3603  12.5011  13.2684  14.1986
    16.4629  19.8811  20.2982  20.5156  21.1283  21.7122  22.0353  22.6836
    23.7745  24.2348  27.6734  32.6857

          k = 0.0000 0.0000 0.2105 (  1026 PWs)   bands (ev):

   -59.1376 -57.5460 -28.3832 -27.9201 -27.9201 -26.8336 -26.3136 -26.3136
    -2.1117  -1.0440  11.1771  12.9225  12.9225  13.7369  14.3924  14.3924
    18.0824  18.8915  18.8915  20.3923  20.3923  21.2883  21.5250  21.5250
    23.2999  23.2999  25.5483  27.0272

          k = 0.5000-0.2887 0.2105 (  1012 PWs)   bands (ev):

   -59.1090 -57.5156 -28.3316 -28.1574 -27.9737 -26.7868 -26.5713 -26.3712
    -0.9262  -0.6725  10.2753  11.1236  12.7704  13.2605  13.4046  13.6957
    17.5196  19.6240  20.3718  20.3800  21.6003  21.8980  21.9291  22.1606
    23.2124  23.7367  27.9596  30.0606

          k =-0.2500 0.1443 0.0000 (  1022 PWs)   bands (ev):

   -59.1278 -57.5250 -28.5190 -28.0433 -27.9496 -26.6278 -26.4393 -26.3393
    -1.7833  -0.6044  11.1442  12.1568  12.5089  12.5104  14.0423  14.4511
    16.6643  19.2028  19.7186  20.4938  20.6361  21.7454  21.9834  22.9399
    23.2259  23.6462  26.5945  29.9536

          k = 0.2500-0.1443 0.0000 (  1022 PWs)   bands (ev):

   -59.1278 -57.5250 -28.5190 -28.0433 -27.9496 -26.6278 -26.4393 -26.3393
    -1.7833  -0.6044  11.1442  12.1568  12.5089  12.5104  14.0423  14.4511
    16.6643  19.2028  19.7186  20.4938  20.6361  21.7454  21.9834  22.9399
    23.2259  23.6462  26.5945  29.9536

          k =-0.2500 0.1443 0.2105 (  1026 PWs)   bands (ev):

   -59.1233 -57.5308 -28.3574 -28.0399 -27.9470 -26.8100 -26.4436 -26.3425
    -1.4951  -0.9063  11.0549  11.7002  12.9509  13.2874  13.9103  14.0337
    17.8288  19.2874  19.4653  20.1338  20.9662  21.5234  21.8644  22.1928
    22.5174  23.3139  27.7097  29.4249

          k = 0.2500-0.1443 0.2105 (  1026 PWs)   bands (ev):

   -59.1233 -57.5308 -28.3575 -28.0398 -27.9470 -26.8101 -26.4436 -26.3425
    -1.4947  -0.9065  11.0293  11.7086  12.9349  13.2745  13.9326  14.0874
    17.7889  19.5493  19.7031  19.9880  20.4148  21.3731  21.7537  22.1742
    23.0321  23.3273  27.6289  29.4816

          k = 0.5000-0.2887 0.0000 (  1012 PWs)   bands (ev):

   -59.1134 -57.5099 -28.4880 -28.1622 -27.9765 -26.6115 -26.5646 -26.3677
    -1.0624  -0.5555   9.9641  12.3063  12.3603  12.5011  13.2684  14.1986
    16.4629  19.8811  20.2982  20.5156  21.1283  21.7122  22.0353  22.6836
    23.7745  24.2348  27.6734  32.6857

          k = 1.0000-0.5774 0.0000 (  1037 PWs)   bands (ev):

   -59.1422 -57.5400 -28.5502 -27.9225 -27.9225 -26.6446 -26.3107 -26.3107
    -2.5834  -0.4095   9.9894  12.3725  12.3725  15.5312  15.5312  15.7398
    16.3620  18.4674  18.4674  19.5498  19.5498  21.7486  21.7486  23.3792
    23.9650  23.9650  24.1032  26.4749

          k = 0.5000-0.2887 0.2105 (  1012 PWs)   bands (ev):

   -59.1090 -57.5156 -28.3316 -28.1574 -27.9737 -26.7868 -26.5713 -26.3712
    -0.9262  -0.6725  10.2753  11.1236  12.7704  13.2605  13.4046  13.6957
    17.5196  19.6240  20.3718  20.3800  21.6003  21.8980  21.9291  22.1606
    23.2124  23.7367  27.9596  30.0606

          k = 1.0000-0.5774 0.2105 (  1026 PWs)   bands (ev):

   -59.1376 -57.5460 -28.3832 -27.9201 -27.9201 -26.8336 -26.3136 -26.3136
    -2.1117  -1.0440  11.1771  12.9225  12.9225  13.7369  14.3924  14.3924
    18.0824  18.8915  18.8915  20.3923  20.3923  21.2883  21.5250  21.5250
    23.2999  23.2999  25.5483  27.0272

          k = 0.7500-0.1443 0.0000 (  1012 PWs)   bands (ev):

   -59.1134 -57.5099 -28.4879 -28.1162 -28.0232 -26.6108 -26.5165 -26.4176
    -0.8874  -0.7490  10.8093  11.6115  12.2658  12.5225  12.9917  13.7138
    17.6196  19.6304  20.2206  20.8367  21.1358  21.8418  22.1825  22.5593
    22.7879  23.6153  29.3532  32.4824

          k = 1.2500-0.4330 0.0000 (  1022 PWs)   bands (ev):

   -59.1278 -57.5250 -28.5190 -28.0433 -27.9496 -26.6278 -26.4393 -26.3393
    -1.7833  -0.6044  11.1442  12.1568  12.5089  12.5104  14.0423  14.4511
    16.6643  19.2028  19.7186  20.4938  20.6361  21.7454  21.9834  22.9399
    23.2259  23.6462  26.5945  29.9536

          k = 0.7500-0.1443 0.2105 (  1020 PWs)   bands (ev):

   -59.1090 -57.5156 -28.3315 -28.1121 -28.0200 -26.7867 -26.5219 -26.4216
    -0.8399  -0.7707  10.8831  11.1893  12.5137  12.6821  13.2365  13.7105
    18.4950  19.2432  20.0556  20.4448  21.0711  21.5738  21.9236  22.1199
    23.3766  23.8627  29.5116  31.1783

          k = 1.2500-0.4330 0.2105 (  1026 PWs)   bands (ev):

   -59.1233 -57.5308 -28.3574 -28.0399 -27.9470 -26.8100 -26.4436 -26.3425
    -1.4951  -0.9063  11.0549  11.7002  12.9509  13.2874  13.9103  14.0337
    17.8288  19.2874  19.4653  20.1338  20.9662  21.5234  21.8644  22.1928
    22.5174  23.3139  27.7097  29.4249

          k = 0.0000 0.2887 0.0000 (  1022 PWs)   bands (ev):

   -59.1278 -57.5250 -28.5190 -28.0433 -27.9496 -26.6278 -26.4393 -26.3393
    -1.7833  -0.6044  11.1442  12.1568  12.5089  12.5104  14.0423  14.4511
    16.6643  19.2028  19.7186  20.4938  20.6361  21.7454  21.9834  22.9399
    23.2259  23.6462  26.5945  29.9536

          k = 0.5000 0.0000 0.0000 (  1012 PWs)   bands (ev):

   -59.1134 -57.5099 -28.4879 -28.1162 -28.0232 -26.6108 -26.5165 -26.4176
    -0.8874  -0.7490  10.8093  11.6115  12.2658  12.5225  12.9917  13.7138
    17.6196  19.6304  20.2206  20.8367  21.1358  21.8418  22.1825  22.5593
    22.7879  23.6153  29.3532  32.4824

          k = 0.0000 0.2887-0.2105 (  1026 PWs)   bands (ev):

   -59.1233 -57.5308 -28.3574 -28.0399 -27.9470 -26.8100 -26.4436 -26.3425
    -1.4951  -0.9063  11.0549  11.7002  12.9509  13.2874  13.9103  14.0337
    17.8288  19.2874  19.4653  20.1338  20.9662  21.5234  21.8644  22.1928
    22.5174  23.3139  27.7097  29.4249

          k = 0.5000 0.0000-0.2105 (  1020 PWs)   bands (ev):

   -59.1090 -57.5156 -28.3315 -28.1121 -28.0200 -26.7867 -26.5219 -26.4216
    -0.8399  -0.7707  10.8831  11.1893  12.5137  12.6821  13.2365  13.7105
    18.4950  19.2432  20.0556  20.4448  21.0711  21.5738  21.9236  22.1199
    23.3766  23.8627  29.5116  31.1783

          k = 0.2500 0.1443-0.2105 (  1026 PWs)   bands (ev):

   -59.1233 -57.5308 -28.3575 -28.0398 -27.9470 -26.8101 -26.4436 -26.3425
    -1.4947  -0.9065  11.0293  11.7086  12.9349  13.2745  13.9326  14.0874
    17.7889  19.5493  19.7031  19.9880  20.4148  21.3731  21.7537  22.1742
    23.0321  23.3273  27.6289  29.4816

          k = 0.7500-0.1443-0.2105 (  1020 PWs)   bands (ev):

   -59.1090 -57.5156 -28.3315 -28.1121 -28.0200 -26.7867 -26.5219 -26.4216
    -0.8399  -0.7707  10.8831  11.1893  12.5137  12.6821  13.2365  13.7105
    18.4950  19.2432  20.0556  20.4448  21.0711  21.5738  21.9236  22.1199
    23.3766  23.8627  29.5116  31.1783

          k =-0.2500 0.1443-0.2105 (  1026 PWs)   bands (ev):

   -59.1233 -57.5308 -28.3575 -28.0398 -27.9470 -26.8101 -26.4436 -26.3425
    -1.4947  -0.9065  11.0293  11.7086  12.9349  13.2745  13.9326  14.0874
    17.7889  19.5493  19.7031  19.9880  20.4148  21.3731  21.7537  22.1742
    23.0321  23.3273  27.6289  29.4816

          k = 0.2500-0.1443-0.2105 (  1026 PWs)   bands (ev):

   -59.1233 -57.5308 -28.3574 -28.0399 -27.9470 -26.8100 -26.4436 -26.3425
    -1.4951  -0.9063  11.0549  11.7002  12.9509  13.2874  13.9103  14.0337
    17.8288  19.2874  19.4653  20.1338  20.9662  21.5234  21.8644  22.1928
    22.5174  23.3139  27.7097  29.4249

          k = 0.0000-0.5774 0.0000 (  1012 PWs)   bands (ev):

   -59.1134 -57.5099 -28.4880 -28.1622 -27.9765 -26.6115 -26.5646 -26.3677
    -1.0624  -0.5555   9.9641  12.3063  12.3603  12.5011  13.2684  14.1986
    16.4629  19.8811  20.2982  20.5156  21.1283  21.7122  22.0353  22.6836
    23.7745  24.2348  27.6734  32.6857

          k = 0.5000-0.8660 0.0000 (  1012 PWs)   bands (ev):

   -59.1134 -57.5099 -28.4880 -28.1622 -27.9765 -26.6115 -26.5646 -26.3677
    -1.0624  -0.5555   9.9641  12.3063  12.3603  12.5011  13.2684  14.1986
    16.4629  19.8811  20.2982  20.5156  21.1283  21.7122  22.0353  22.6836
    23.7745  24.2348  27.6734  32.6857

          k = 0.0000-0.5774-0.2105 (  1012 PWs)   bands (ev):

   -59.1090 -57.5156 -28.3316 -28.1574 -27.9737 -26.7868 -26.5713 -26.3712
    -0.9262  -0.6725  10.2753  11.1236  12.7704  13.2605  13.4046  13.6957
    17.5196  19.6240  20.3718  20.3800  21.6003  21.8980  21.9291  22.1606
    23.2124  23.7367  27.9596  30.0606

          k = 0.5000-0.8660-0.2105 (  1012 PWs)   bands (ev):

   -59.1090 -57.5156 -28.3316 -28.1574 -27.9737 -26.7868 -26.5713 -26.3712
    -0.9262  -0.6725  10.2753  11.1236  12.7704  13.2605  13.4046  13.6957
    17.5196  19.6240  20.3718  20.3800  21.6003  21.8980  21.9291  22.1606
    23.2124  23.7367  27.9596  30.0606

          k = 0.7500 0.1443 0.0000 (  1012 PWs)   bands (ev):

   -59.1134 -57.5099 -28.4879 -28.1162 -28.0232 -26.6108 -26.5165 -26.4176
    -0.8874  -0.7490  10.8093  11.6115  12.2658  12.5225  12.9917  13.7138
    17.6196  19.6304  20.2206  20.8367  21.1358  21.8418  22.1825  22.5593
    22.7879  23.6153  29.3532  32.4824

          k = 1.2500-0.1443 0.0000 (  1012 PWs)   bands (ev):

   -59.1134 -57.5099 -28.4879 -28.1162 -28.0232 -26.6108 -26.5165 -26.4176
    -0.8874  -0.7490  10.8093  11.6115  12.2658  12.5225  12.9917  13.7138
    17.6196  19.6304  20.2206  20.8367  21.1358  21.8418  22.1825  22.5593
    22.7879  23.6153  29.3532  32.4824

          k =-0.2500-0.7217-0.2105 (  1020 PWs)   bands (ev):

   -59.1090 -57.5156 -28.3315 -28.1121 -28.0200 -26.7867 -26.5219 -26.4216
    -0.8399  -0.7707  10.8831  11.1893  12.5137  12.6821  13.2365  13.7105
    18.4950  19.2432  20.0556  20.4448  21.0711  21.5738  21.9236  22.1199
    23.3766  23.8627  29.5116  31.1783

          k = 0.2500-1.0104-0.2105 (  1026 PWs)   bands (ev):

   -59.1233 -57.5308 -28.3575 -28.0398 -27.9470 -26.8101 -26.4436 -26.3425
    -1.4947  -0.9065  11.0293  11.7086  12.9349  13.2745  13.9326  14.0874
    17.7889  19.5493  19.7031  19.9880  20.4148  21.3731  21.7537  22.1742
    23.0321  23.3273  27.6289  29.4816

          k = 0.7500 0.1443-0.2105 (  1020 PWs)   bands (ev):

   -59.1090 -57.5156 -28.3315 -28.1121 -28.0200 -26.7867 -26.5219 -26.4216
    -0.8399  -0.7707  10.8831  11.1893  12.5137  12.6821  13.2365  13.7105
    18.4950  19.2432  20.0556  20.4448  21.0711  21.5738  21.9236  22.1199
    23.3766  23.8627  29.5116  31.1783

          k = 1.2500-0.1443-0.2105 (  1020 PWs)   bands (ev):

   -59.1090 -57.5156 -28.3315 -28.1121 -28.0200 -26.7867 -26.5219 -26.4216
    -0.8399  -0.7707  10.8831  11.1893  12.5137  12.6821  13.2365  13.7105
    18.4950  19.2432  20.0556  20.4448  21.0711  21.5738  21.9236  22.1199
    23.3766  23.8627  29.5116  31.1783

     the Fermi energy is    21.3931 ev
     (compare with:    21.3934 eV, computed in scf)

     Writing all to output data dir ./tmp/HP/MnO.save/
     Done!

                   WRITING LINEAR-RESPONSE SUMMARY:


     Number of symmetries in the small group of q, nsymq =  4
      + the symmetry q -> -q+G 

     Symmetry matrices (and vectors of fractional translations if f/=0):

     isym =  1     identity                                     

     cryst.   s( 1) = (     1          0          0      )
                      (     0          1          0      )
                      (     0          0          1      )

     cart.    s( 1) = (  1.0000000  0.0000000  0.0000000 )
                      (  0.0000000  1.0000000  0.0000000 )
                      (  0.0000000  0.0000000  1.0000000 )


     isym =  2     180 deg rotation - cryst. axis [1,1,0]       

     cryst.   s( 2) = (     1          0          0      )
                      (     1         -1          0      )
                      (     0          0         -1      )

     cart.    s( 2) = ( -0.5000000  0.8660254  0.0000000 )
                      (  0.8660254  0.5000000  0.0000000 )
                      (  0.0000000  0.0000000 -1.0000000 )


     isym =  3     inversion                                    

     cryst.   s( 3) = (    -1          0          0      )
                      (     0         -1          0      )
                      (     0          0         -1      )

     cart.    s( 3) = ( -1.0000000  0.0000000  0.0000000 )
                      (  0.0000000 -1.0000000  0.0000000 )
                      (  0.0000000  0.0000000 -1.0000000 )


     isym =  4     inv. 180 deg rotation - cryst. axis [1,1,0]  

     cryst.   s( 4) = (    -1          0          0      )
                      (    -1          1          0      )
                      (     0          0          1      )

     cart.    s( 4) = (  0.5000000 -0.8660254  0.0000000 )
                      ( -0.8660254 -0.5000000  0.0000000 )
                      (  0.0000000  0.0000000  1.0000000 )


     This transformation sends q -> -q+G

     isym =  5     identity                                     

     cryst.   s( 5) = (     1          0          0      )
                      (     0          1          0      )
                      (     0          0          1      )

     cart.    s( 5) = (  1.0000000  0.0000000  0.0000000 )
                      (  0.0000000  1.0000000  0.0000000 )
                      (  0.0000000  0.0000000  1.0000000 )


     G cutoff =  315.9487  (  32259 G-vectors)     FFT grid: ( 36, 36, 60)
     G cutoff =  126.3795  (   8171 G-vectors)  smooth grid: ( 24, 24, 36)

     Number of k (and k+q if q/=0) points =    68  Marzari-Vanderbilt smearing, width (Ry) =  0.0100

                       cart. coord. (in units 2pi/alat)
        k (    1) = (   0.0000000   0.0000000   0.0000000), wk = 0.0208333
        k (    2) = (   0.5000000  -0.2886751   0.0000000), wk = 0.0000000
        k (    3) = (   0.0000000   0.0000000   0.2104865), wk = 0.0416667
        k (    4) = (   0.5000000  -0.2886751   0.2104865), wk = 0.0000000
        k (    5) = (  -0.2500000   0.1443376   0.0000000), wk = 0.0416667
        k (    6) = (   0.2500000  -0.1443376   0.0000000), wk = 0.0000000
        k (    7) = (  -0.2500000   0.1443376   0.2104865), wk = 0.0416667
        k (    8) = (   0.2500000  -0.1443376   0.2104865), wk = 0.0000000
        k (    9) = (   0.5000000  -0.2886751   0.0000000), wk = 0.0208333
        k (   10) = (   1.0000000  -0.5773503   0.0000000), wk = 0.0000000
        k (   11) = (   0.5000000  -0.2886751   0.2104865), wk = 0.0416667
        k (   12) = (   1.0000000  -0.5773503   0.2104865), wk = 0.0000000
        k (   13) = (   0.7500000  -0.1443376   0.0000000), wk = 0.0833333
        k (   14) = (   1.2500000  -0.4330127   0.0000000), wk = 0.0000000
        k (   15) = (   0.7500000  -0.1443376   0.2104865), wk = 0.0833333
        k (   16) = (   1.2500000  -0.4330127   0.2104865), wk = 0.0000000
        k (   17) = (   0.0000000   0.2886751   0.0000000), wk = 0.0833333
        k (   18) = (   0.5000000   0.0000000   0.0000000), wk = 0.0000000
        k (   19) = (   0.0000000   0.2886751  -0.2104865), wk = 0.0833333
        k (   20) = (   0.5000000   0.0000000  -0.2104865), wk = 0.0000000
        k (   21) = (   0.2500000   0.1443376  -0.2104865), wk = 0.0833333
        k (   22) = (   0.7500000  -0.1443376  -0.2104865), wk = 0.0000000
        k (   23) = (  -0.2500000   0.1443376  -0.2104865), wk = 0.0416667
        k (   24) = (   0.2500000  -0.1443376  -0.2104865), wk = 0.0000000
        k (   25) = (   0.0000000  -0.5773503   0.0000000), wk = 0.0416667
        k (   26) = (   0.5000000  -0.8660254   0.0000000), wk = 0.0000000
        k (   27) = (   0.0000000  -0.5773503  -0.2104865), wk = 0.0833333
        k (   28) = (   0.5000000  -0.8660254  -0.2104865), wk = 0.0000000
        k (   29) = (   0.7500000   0.1443376   0.0000000), wk = 0.0416667
        k (   30) = (   1.2500000  -0.1443376   0.0000000), wk = 0.0000000
        k (   31) = (  -0.2500000  -0.7216878  -0.2104865), wk = 0.0833333
        k (   32) = (   0.2500000  -1.0103630  -0.2104865), wk = 0.0000000
        k (   33) = (   0.7500000   0.1443376  -0.2104865), wk = 0.0833333
        k (   34) = (   1.2500000  -0.1443376  -0.2104865), wk = 0.0000000
        k (   35) = (   0.0000000   0.0000000   0.0000000), wk = 0.0208333
        k (   36) = (   0.5000000  -0.2886751   0.0000000), wk = 0.0000000
        k (   37) = (   0.0000000   0.0000000   0.2104865), wk = 0.0416667
        k (   38) = (   0.5000000  -0.2886751   0.2104865), wk = 0.0000000
        k (   39) = (  -0.2500000   0.1443376   0.0000000), wk = 0.0416667
        k (   40) = (   0.2500000  -0.1443376   0.0000000), wk = 0.0000000
        k (   41) = (  -0.2500000   0.1443376   0.2104865), wk = 0.0416667
        k (   42) = (   0.2500000  -0.1443376   0.2104865), wk = 0.0000000
        k (   43) = (   0.5000000  -0.2886751   0.0000000), wk = 0.0208333
        k (   44) = (   1.0000000  -0.5773503   0.0000000), wk = 0.0000000
        k (   45) = (   0.5000000  -0.2886751   0.2104865), wk = 0.0416667
        k (   46) = (   1.0000000  -0.5773503   0.2104865), wk = 0.0000000
        k (   47) = (   0.7500000  -0.1443376   0.0000000), wk = 0.0833333
        k (   48) = (   1.2500000  -0.4330127   0.0000000), wk = 0.0000000
        k (   49) = (   0.7500000  -0.1443376   0.2104865), wk = 0.0833333
        k (   50) = (   1.2500000  -0.4330127   0.2104865), wk = 0.0000000
        k (   51) = (   0.0000000   0.2886751   0.0000000), wk = 0.0833333
        k (   52) = (   0.5000000   0.0000000   0.0000000), wk = 0.0000000
        k (   53) = (   0.0000000   0.2886751  -0.2104865), wk = 0.0833333
        k (   54) = (   0.5000000   0.0000000  -0.2104865), wk = 0.0000000
        k (   55) = (   0.2500000   0.1443376  -0.2104865), wk = 0.0833333
        k (   56) = (   0.7500000  -0.1443376  -0.2104865), wk = 0.0000000
        k (   57) = (  -0.2500000   0.1443376  -0.2104865), wk = 0.0416667
        k (   58) = (   0.2500000  -0.1443376  -0.2104865), wk = 0.0000000
        k (   59) = (   0.0000000  -0.5773503   0.0000000), wk = 0.0416667
        k (   60) = (   0.5000000  -0.8660254   0.0000000), wk = 0.0000000
        k (   61) = (   0.0000000  -0.5773503  -0.2104865), wk = 0.0833333
        k (   62) = (   0.5000000  -0.8660254  -0.2104865), wk = 0.0000000
        k (   63) = (   0.7500000   0.1443376   0.0000000), wk = 0.0416667
        k (   64) = (   1.2500000  -0.1443376   0.0000000), wk = 0.0000000
        k (   65) = (  -0.2500000  -0.7216878  -0.2104865), wk = 0.0833333
        k (   66) = (   0.2500000  -1.0103630  -0.2104865), wk = 0.0000000
        k (   67) = (   0.7500000   0.1443376  -0.2104865), wk = 0.0833333
        k (   68) = (   1.2500000  -0.1443376  -0.2104865), wk = 0.0000000

                       cryst. coord.
        k (    1) = (   0.0000000   0.0000000   0.0000000), wk = 0.0208333
        k (    2) = (   0.0000000  -0.5000000   0.0000000), wk = 0.0000000
        k (    3) = (   0.0000000   0.0000000   0.3333333), wk = 0.0416667
        k (    4) = (   0.0000000  -0.5000000   0.3333333), wk = 0.0000000
        k (    5) = (   0.0000000   0.2500000   0.0000000), wk = 0.0416667
        k (    6) = (   0.0000000  -0.2500000   0.0000000), wk = 0.0000000
        k (    7) = (   0.0000000   0.2500000   0.3333333), wk = 0.0416667
        k (    8) = (   0.0000000  -0.2500000   0.3333333), wk = 0.0000000
        k (    9) = (   0.0000000  -0.5000000   0.0000000), wk = 0.0208333
        k (   10) = (   0.0000000  -1.0000000   0.0000000), wk = 0.0000000
        k (   11) = (   0.0000000  -0.5000000   0.3333333), wk = 0.0416667
        k (   12) = (   0.0000000  -1.0000000   0.3333333), wk = 0.0000000
        k (   13) = (   0.2500000  -0.5000000   0.0000000), wk = 0.0833333
        k (   14) = (   0.2500000  -1.0000000   0.0000000), wk = 0.0000000
        k (   15) = (   0.2500000  -0.5000000   0.3333333), wk = 0.0833333
        k (   16) = (   0.2500000  -1.0000000   0.3333333), wk = 0.0000000
        k (   17) = (   0.2500000   0.2500000   0.0000000), wk = 0.0833333
        k (   18) = (   0.2500000  -0.2500000   0.0000000), wk = 0.0000000
        k (   19) = (   0.2500000   0.2500000  -0.3333333), wk = 0.0833333
        k (   20) = (   0.2500000  -0.2500000  -0.3333333), wk = 0.0000000
        k (   21) = (   0.2500000   0.0000000  -0.3333333), wk = 0.0833333
        k (   22) = (   0.2500000  -0.5000000  -0.3333333), wk = 0.0000000
        k (   23) = (   0.0000000   0.2500000  -0.3333333), wk = 0.0416667
        k (   24) = (   0.0000000  -0.2500000  -0.3333333), wk = 0.0000000
        k (   25) = (  -0.5000000  -0.5000000   0.0000000), wk = 0.0416667
        k (   26) = (  -0.5000000  -1.0000000   0.0000000), wk = 0.0000000
        k (   27) = (  -0.5000000  -0.5000000  -0.3333333), wk = 0.0833333
        k (   28) = (  -0.5000000  -1.0000000  -0.3333333), wk = 0.0000000
        k (   29) = (   0.5000000  -0.2500000   0.0000000), wk = 0.0416667
        k (   30) = (   0.5000000  -0.7500000   0.0000000), wk = 0.0000000
        k (   31) = (  -0.7500000  -0.5000000  -0.3333333), wk = 0.0833333
        k (   32) = (  -0.7500000  -1.0000000  -0.3333333), wk = 0.0000000
        k (   33) = (   0.5000000  -0.2500000  -0.3333333), wk = 0.0833333
        k (   34) = (   0.5000000  -0.7500000  -0.3333333), wk = 0.0000000
        k (   35) = (   0.0000000   0.0000000   0.0000000), wk = 0.0208333
[...]
        k (   55) = (   0.2500000   0.0000000  -0.3333333), wk = 0.0833333
        k (   56) = (   0.2500000  -0.5000000  -0.3333333), wk = 0.0000000
        k (   57) = (   0.0000000   0.2500000  -0.3333333), wk = 0.0416667
        k (   58) = (   0.0000000  -0.2500000  -0.3333333), wk = 0.0000000
        k (   59) = (  -0.5000000  -0.5000000   0.0000000), wk = 0.0416667
        k (   60) = (  -0.5000000  -1.0000000   0.0000000), wk = 0.0000000
        k (   61) = (  -0.5000000  -0.5000000  -0.3333333), wk = 0.0833333
        k (   62) = (  -0.5000000  -1.0000000  -0.3333333), wk = 0.0000000
        k (   63) = (   0.5000000  -0.2500000   0.0000000), wk = 0.0416667
        k (   64) = (   0.5000000  -0.7500000   0.0000000), wk = 0.0000000
        k (   65) = (  -0.7500000  -0.5000000  -0.3333333), wk = 0.0833333
        k (   66) = (  -0.7500000  -1.0000000  -0.3333333), wk = 0.0000000
        k (   67) = (   0.5000000  -0.2500000  -0.3333333), wk = 0.0833333
        k (   68) = (   0.5000000  -0.7500000  -0.3333333), wk = 0.0000000

     Atomic wfc used for the projector on the Hubbard manifold are orthogonalized

     Total time spent up to now is:
     HP           :   4m53.52s CPU   4m56.64s WALL

      =--------------------------------------------=
                 SOLVE THE LINEAR SYSTEM
      =--------------------------------------------=

      atom #  1   q point #   2   iter #   1
      chi:   1  -1.6927523169
      chi:   2  -0.2391812814
      chi:   3  -0.0060077689
      chi:   4   0.0060077689
      Average number of iter. to solve lin. system:   39.3
      Total CPU time :   315.4 s

      atom #  1   q point #   2   iter #   2
      chi:   1   0.5905882890   residue:    2.2833406059
      chi:   2   0.7531051695   residue:    0.9922864510
      chi:   3   0.0308270629   residue:    0.0368348319
      chi:   4  -0.0308270629   residue:    0.0368348319
      Average number of iter. to solve lin. system:   12.7
      Total CPU time :   323.7 s

      atom #  1   q point #   2   iter #   3
      chi:   1  -0.1784062851   residue:    0.7689945741
      chi:   2  -0.0142278093   residue:    0.7673329788
      chi:   3   0.0119263140   residue:    0.0189007489
      chi:   4  -0.0119263140   residue:    0.0189007489
      Average number of iter. to solve lin. system:   11.6
      Total CPU time :   331.5 s

      atom #  1   q point #   2   iter #   4
      chi:   1  -0.1464768283   residue:    0.0319294567
      chi:   2   0.0186803648   residue:    0.0329081741
      chi:   3   0.0114475731   residue:    0.0004787409
      chi:   4  -0.0114475731   residue:    0.0004787409
      Average number of iter. to solve lin. system:   12.2
      Total CPU time :   339.7 s

      atom #  1   q point #   2   iter #   5
      chi:   1  -0.1461341578   residue:    0.0003426705
      chi:   2   0.0191478482   residue:    0.0004674834
      chi:   3   0.0061327604   residue:    0.0053148127
      chi:   4  -0.0061327604   residue:    0.0053148127
      Average number of iter. to solve lin. system:   16.1
      Total CPU time :   349.4 s

      atom #  1   q point #   2   iter #   6
      chi:   1  -0.1460456906   residue:    0.0000884673
      chi:   2   0.0191969090   residue:    0.0000490609
      chi:   3   0.0054486267   residue:    0.0006841337
      chi:   4  -0.0054486267   residue:    0.0006841337
      Average number of iter. to solve lin. system:   14.2
      Total CPU time :   358.3 s

      atom #  1   q point #   2   iter #   7
      chi:   1  -0.1463854037   residue:    0.0003397131
      chi:   2   0.0214676653   residue:    0.0022707563
      chi:   3   0.0061523362   residue:    0.0007037095
      chi:   4  -0.0061523362   residue:    0.0007037095
      Average number of iter. to solve lin. system:   17.2
      Total CPU time :   368.5 s

      atom #  1   q point #   2   iter #   8
      chi:   1  -0.1466906630   residue:    0.0003052593
      chi:   2   0.0218604797   residue:    0.0003928144
      chi:   3   0.0061776713   residue:    0.0000253351
      chi:   4  -0.0061776713   residue:    0.0000253351
      Average number of iter. to solve lin. system:   15.2
      Total CPU time :   377.9 s

      atom #  1   q point #   2   iter #   9
      chi:   1  -0.1544232724   residue:    0.0077326094
      chi:   2   0.0266930330   residue:    0.0048325533
      chi:   3   0.0062113139   residue:    0.0000336426
      chi:   4  -0.0062113139   residue:    0.0000336426
      Average number of iter. to solve lin. system:   19.2
      Total CPU time :   389.0 s

      atom #  1   q point #   2   iter #  10
      chi:   1  -0.1553571678   residue:    0.0009338953
      chi:   2   0.0271943213   residue:    0.0005012883
      chi:   3   0.0061572252   residue:    0.0000540887
      chi:   4  -0.0061572252   residue:    0.0000540887
      Average number of iter. to solve lin. system:   15.3
      Total CPU time :   398.4 s

      atom #  1   q point #   2   iter #  11
      chi:   1  -0.1614496807   residue:    0.0060925130
      chi:   2   0.0318378844   residue:    0.0046435631
      chi:   3   0.0064112631   residue:    0.0002540379
      chi:   4  -0.0064112631   residue:    0.0002540379
      Average number of iter. to solve lin. system:   19.0
      Total CPU time :   409.4 s

      atom #  1   q point #   2   iter #  12
      chi:   1  -0.1744637512   residue:    0.0130140705
      chi:   2   0.0404643659   residue:    0.0086264815
      chi:   3   0.0063674788   residue:    0.0000437843
      chi:   4  -0.0063674788   residue:    0.0000437843
      Average number of iter. to solve lin. system:   20.3
      Total CPU time :   421.0 s

      atom #  1   q point #   2   iter #  13
      chi:   1  -0.1757137613   residue:    0.0012500101
      chi:   2   0.0414755687   residue:    0.0010112028
      chi:   3   0.0064107091   residue:    0.0000432303
      chi:   4  -0.0064107091   residue:    0.0000432303
      Average number of iter. to solve lin. system:   16.6
      Total CPU time :   430.9 s

      atom #  1   q point #   2   iter #  14
      chi:   1  -0.1874792656   residue:    0.0117655043
      chi:   2   0.0507218778   residue:    0.0092463091
      chi:   3   0.0063587732   residue:    0.0000519359
      chi:   4  -0.0063587732   residue:    0.0000519359
      Average number of iter. to solve lin. system:   20.5
      Total CPU time :   442.5 s

      atom #  1   q point #   2   iter #  15
      chi:   1  -0.1867695844   residue:    0.0007096812
      chi:   2   0.0501706267   residue:    0.0005512511
      chi:   3   0.0063103728   residue:    0.0000484003
      chi:   4  -0.0063103728   residue:    0.0000484003
      Average number of iter. to solve lin. system:   15.7
      Total CPU time :   452.1 s

      atom #  1   q point #   2   iter #  16
      chi:   1  -0.1860429669   residue:    0.0007266175
      chi:   2   0.0506187983   residue:    0.0004481716
      chi:   3   0.0063481455   residue:    0.0000377727
      chi:   4  -0.0063481455   residue:    0.0000377727
      Average number of iter. to solve lin. system:   17.0
      Total CPU time :   462.2 s

      atom #  1   q point #   2   iter #  17
      chi:   1  -0.1856566598   residue:    0.0003863071
      chi:   2   0.0505441205   residue:    0.0000746778
      chi:   3   0.0063329575   residue:    0.0000151880
      chi:   4  -0.0063329575   residue:    0.0000151880
      Average number of iter. to solve lin. system:   14.6
      Total CPU time :   471.3 s

      atom #  1   q point #   2   iter #  18
      chi:   1  -0.1855968696   residue:    0.0000597902
      chi:   2   0.0523424272   residue:    0.0017983067
      chi:   3   0.0062105654   residue:    0.0001223921
      chi:   4  -0.0062105654   residue:    0.0001223921
      Average number of iter. to solve lin. system:   17.9
      Total CPU time :   481.8 s

      atom #  1   q point #   2   iter #  19
      chi:   1  -0.1859563158   residue:    0.0003594462
      chi:   2   0.0527838518   residue:    0.0004414246
      chi:   3   0.0061325905   residue:    0.0000779749
      chi:   4  -0.0061325905   residue:    0.0000779749
      Average number of iter. to solve lin. system:   15.2
      Total CPU time :   491.2 s

      atom #  1   q point #   2   iter #  20
      chi:   1  -0.1965901186   residue:    0.0106338028
      chi:   2   0.0624882583   residue:    0.0097044064
      chi:   3   0.0060026850   residue:    0.0001299055
      chi:   4  -0.0060026850   residue:    0.0001299055
      Average number of iter. to solve lin. system:   20.9
      Total CPU time :   503.0 s

      atom #  1   q point #   2   iter #  21
      chi:   1  -0.2045790562   residue:    0.0079889377
      chi:   2   0.0698082555   residue:    0.0073199973
      chi:   3   0.0060891329   residue:    0.0000864479
      chi:   4  -0.0060891329   residue:    0.0000864479
      Average number of iter. to solve lin. system:   20.6
      Total CPU time :   514.7 s

      atom #  1   q point #   2   iter #  22
      chi:   1  -0.2146559996   residue:    0.0100769434
      chi:   2   0.0806359225   residue:    0.0108276669
      chi:   3   0.0064247224   residue:    0.0003355895
      chi:   4  -0.0064247224   residue:    0.0003355895
      Average number of iter. to solve lin. system:   21.3
      Total CPU time :   526.7 s

      atom #  1   q point #   2   iter #  23
      chi:   1  -0.2190927379   residue:    0.0044367383
      chi:   2   0.0855349035   residue:    0.0048989810
      chi:   3   0.0063438299   residue:    0.0000808925
      chi:   4  -0.0063438299   residue:    0.0000808925
      Average number of iter. to solve lin. system:   20.4
      Total CPU time :   538.2 s

      atom #  1   q point #   2   iter #  24
      chi:   1  -0.2208174389   residue:    0.0017247011
      chi:   2   0.0866356966   residue:    0.0011007931
      chi:   3   0.0064833915   residue:    0.0001395616
      chi:   4  -0.0064833915   residue:    0.0001395616
      Average number of iter. to solve lin. system:   18.4
      Total CPU time :   548.9 s

      atom #  1   q point #   2   iter #  25
      chi:   1  -0.2245128225   residue:    0.0036953836
      chi:   2   0.0898740674   residue:    0.0032383709
      chi:   3   0.0063914001   residue:    0.0000919915
      chi:   4  -0.0063914001   residue:    0.0000919915
      Average number of iter. to solve lin. system:   20.1
      Total CPU time :   560.4 s

      atom #  1   q point #   2   iter #  26
      chi:   1  -0.2332688564   residue:    0.0087560339
      chi:   2   0.0982061819   residue:    0.0083321145
      chi:   3   0.0063725021   residue:    0.0000188980
      chi:   4  -0.0063725021   residue:    0.0000188980
      Average number of iter. to solve lin. system:   22.2
      Total CPU time :   572.7 s

      atom #  1   q point #   2   iter #  27
      chi:   1  -0.2367894134   residue:    0.0035205570
      chi:   2   0.1019414984   residue:    0.0037353165
      chi:   3   0.0062717223   residue:    0.0001007798
      chi:   4  -0.0062717223   residue:    0.0001007798
      Average number of iter. to solve lin. system:   20.6
      Total CPU time :   584.4 s

      atom #  1   q point #   2   iter #  28
      chi:   1  -0.2381476524   residue:    0.0013582390
      chi:   2   0.1043914209   residue:    0.0024499225
      chi:   3   0.0063012181   residue:    0.0000294959
      chi:   4  -0.0063012181   residue:    0.0000294959
      Average number of iter. to solve lin. system:   20.1
      Total CPU time :   595.9 s

      atom #  1   q point #   2   iter #  29
      chi:   1  -0.2382157902   residue:    0.0000681378
      chi:   2   0.1045889731   residue:    0.0001975522
      chi:   3   0.0063543814   residue:    0.0000531633
      chi:   4  -0.0063543814   residue:    0.0000531633
      Average number of iter. to solve lin. system:   16.0
      Total CPU time :   605.6 s

      atom #  1   q point #   2   iter #  30
      chi:   1  -0.2330150977   residue:    0.0052006925
      chi:   2   0.1004576997   residue:    0.0041312734
      chi:   3   0.0062901217   residue:    0.0000642597
      chi:   4  -0.0062901217   residue:    0.0000642597
      Average number of iter. to solve lin. system:   22.1
      Total CPU time :   617.8 s

      atom #  1   q point #   2   iter #  31
      chi:   1  -0.2327710884   residue:    0.0002440093
      chi:   2   0.1002994352   residue:    0.0001582645
      chi:   3   0.0062822228   residue:    0.0000078989
      chi:   4  -0.0062822228   residue:    0.0000078989
      Average number of iter. to solve lin. system:   17.6
      Total CPU time :   628.2 s

      atom #  1   q point #   2   iter #  32
      chi:   1  -0.2331606419   residue:    0.0003895535
      chi:   2   0.1008434888   residue:    0.0005440536
      chi:   3   0.0062692753   residue:    0.0000129475
      chi:   4  -0.0062692753   residue:    0.0000129475
      Average number of iter. to solve lin. system:   19.3
      Total CPU time :   639.3 s

      atom #  1   q point #   2   iter #  33
      chi:   1  -0.2331868311   residue:    0.0000261892
      chi:   2   0.1008826911   residue:    0.0000392023
      chi:   3   0.0062726399   residue:    0.0000033646
      chi:   4  -0.0062726399   residue:    0.0000033646
      Average number of iter. to solve lin. system:   17.8
      Total CPU time :   649.8 s

      atom #  1   q point #   2   iter #  34
      chi:   1  -0.2332983464   residue:    0.0001115154
      chi:   2   0.1010162211   residue:    0.0001335301
      chi:   3   0.0062748951   residue:    0.0000022552
      chi:   4  -0.0062748951   residue:    0.0000022552
      Average number of iter. to solve lin. system:   19.7
      Total CPU time :   661.1 s

      atom #  1   q point #   2   iter #  35
      chi:   1  -0.2335310171   residue:    0.0002326707
      chi:   2   0.1012526607   residue:    0.0002364396
      chi:   3   0.0062765025   residue:    0.0000016074
      chi:   4  -0.0062765025   residue:    0.0000016074
      Average number of iter. to solve lin. system:   21.1
      Total CPU time :   673.0 s

      atom #  1   q point #   2   iter #  36
      chi:   1  -0.2338132773   residue:    0.0002822601
      chi:   2   0.1014970244   residue:    0.0002443637
      chi:   3   0.0062746484   residue:    0.0000018541
      chi:   4  -0.0062746484   residue:    0.0000018541
      Average number of iter. to solve lin. system:   21.5
      Total CPU time :   685.0 s

      atom #  1   q point #   2   iter #  37
      chi:   1  -0.2338798080   residue:    0.0000665307
      chi:   2   0.1015483296   residue:    0.0000513051
      chi:   3   0.0062759124   residue:    0.0000012639
      chi:   4  -0.0062759124   residue:    0.0000012639
      Average number of iter. to solve lin. system:   19.1
      Total CPU time :   696.1 s

      atom #  1   q point #   2   iter #  38
      chi:   1  -0.2338996869   residue:    0.0000198789
      chi:   2   0.1015784346   residue:    0.0000301050
      chi:   3   0.0062737711   residue:    0.0000021412
      chi:   4  -0.0062737711   residue:    0.0000021412
      Average number of iter. to solve lin. system:   18.0
      Total CPU time :   706.6 s

      atom #  1   q point #   2   iter #  39
      chi:   1  -0.2338926366   residue:    0.0000070503
      chi:   2   0.1016032095   residue:    0.0000247749
      chi:   3   0.0062696524   residue:    0.0000041188
      chi:   4  -0.0062696524   residue:    0.0000041188
      Average number of iter. to solve lin. system:   18.9
      Total CPU time :   717.5 s

      atom #  1   q point #   2   iter #  40
      chi:   1  -0.2339081814   residue:    0.0000155448
      chi:   2   0.1016320972   residue:    0.0000288877
      chi:   3   0.0062684584   residue:    0.0000011940
      chi:   4  -0.0062684584   residue:    0.0000011940
      Average number of iter. to solve lin. system:   19.1
      Total CPU time :   728.5 s

      atom #  1   q point #   2   iter #  41
      chi:   1  -0.2339690812   residue:    0.0000608998
      chi:   2   0.1016878380   residue:    0.0000557408
      chi:   3   0.0062708726   residue:    0.0000024142
      chi:   4  -0.0062708726   residue:    0.0000024142
      Average number of iter. to solve lin. system:   20.3
      Total CPU time :   740.0 s

      atom #  1   q point #   2   iter #  42
      chi:   1  -0.2339427130   residue:    0.0000263682
      chi:   2   0.1016675612   residue:    0.0000202768
      chi:   3   0.0062710297   residue:    0.0000001571
      chi:   4  -0.0062710297   residue:    0.0000001571
      Average number of iter. to solve lin. system:   19.2
      Total CPU time :   751.1 s

      atom #  1   q point #   2   iter #  43
      chi:   1  -0.2338257464   residue:    0.0001169665
      chi:   2   0.1015651476   residue:    0.0001024136
      chi:   3   0.0062720682   residue:    0.0000010386
      chi:   4  -0.0062720682   residue:    0.0000010386
      Average number of iter. to solve lin. system:   22.1
      Total CPU time :   763.4 s

      atom #  1   q point #   2   iter #  44
      chi:   1  -0.2338152434   residue:    0.0000105031
      chi:   2   0.1015557039   residue:    0.0000094437
      chi:   3   0.0062714522   residue:    0.0000006160
      chi:   4  -0.0062714522   residue:    0.0000006160
      Average number of iter. to solve lin. system:   19.1
      Total CPU time :   774.5 s

      atom #  1   q point #   2   iter #  45
      chi:   1  -0.2337786659   residue:    0.0000365775
      chi:   2   0.1015148882   residue:    0.0000408157
      chi:   3   0.0062712421   residue:    0.0000002102
      chi:   4  -0.0062712421   residue:    0.0000002102
      Average number of iter. to solve lin. system:   21.5
      Total CPU time :   786.5 s

      atom #  1   q point #   2   iter #  46
      chi:   1  -0.2337763915   residue:    0.0000022744
      chi:   2   0.1015111574   residue:    0.0000037308
      chi:   3   0.0062713312   residue:    0.0000000891
      chi:   4  -0.0062713312   residue:    0.0000000891
      Average number of iter. to solve lin. system:   17.9
      Total CPU time :   797.0 s

      atom #  1   q point #   2   iter #  47
      chi:   1  -0.2337734275   residue:    0.0000029639
      chi:   2   0.1015064320   residue:    0.0000047254
      chi:   3   0.0062716075   residue:    0.0000002763
      chi:   4  -0.0062716075   residue:    0.0000002763
      Average number of iter. to solve lin. system:   18.6
      Total CPU time :   807.8 s

      atom #  1   q point #   2   iter #  48
      chi:   1  -0.2337638810   residue:    0.0000095466
      chi:   2   0.1014985099   residue:    0.0000079221
      chi:   3   0.0062715221   residue:    0.0000000855
      chi:   4  -0.0062715221   residue:    0.0000000855
      Average number of iter. to solve lin. system:   19.8
      Total CPU time :   819.1 s

      atom #  1   q point #   2   iter #  49
      chi:   1  -0.2337322608   residue:    0.0000316202
      chi:   2   0.1014654507   residue:    0.0000330591
      chi:   3   0.0062715494   residue:    0.0000000274
      chi:   4  -0.0062715494   residue:    0.0000000274
      Average number of iter. to solve lin. system:   22.2
      Total CPU time :   831.4 s

      atom #  1   q point #   2   iter #  50
      chi:   1  -0.2337287252   residue:    0.0000035355
      chi:   2   0.1014646714   residue:    0.0000007793
      chi:   3   0.0062713578   residue:    0.0000001916
      chi:   4  -0.0062713578   residue:    0.0000001916
      Average number of iter. to solve lin. system:   18.8
      Total CPU time :   842.4 s

      atom #  1   q point #   2   iter #  51
      chi:   1  -0.2337352678   residue:    0.0000065426
      chi:   2   0.1014676771   residue:    0.0000030057
      chi:   3   0.0062715694   residue:    0.0000002116
      chi:   4  -0.0062715694   residue:    0.0000002116
      Average number of iter. to solve lin. system:   19.6
      Total CPU time :   853.6 s

      atom #  1   q point #   2   iter #  52
