
     Program PWSCF v.6.7MaX starts on  7Jun2021 at 14:32:11 

     This program is part of the open-source Quantum ESPRESSO suite
     for quantum simulation of materials; please cite
         "P. Giannozzi et al., J. Phys.:Condens. Matter 21 395502 (2009);
         "P. Giannozzi et al., J. Phys.:Condens. Matter 29 465901 (2017);
          URL http://www.quantum-espresso.org", 
     in publications or presentations arising from this work. More details at
     http://www.quantum-espresso.org/quote

     Parallel version (MPI), running on     8 processors

     MPI processes distributed on     1 nodes
     R & G space division:  proc/nbgrp/npool/nimage =       8
     Waiting for input...
     Reading input from standard input

     Current dimensions of program PWSCF are:
     Max number of different atomic species (ntypx) = 10
     Max number of k-points (npk) =  40000
     Max angular momentum in pseudopotentials (lmaxx) =  3

     Reading Hubbard V parameters from the input...

     Message from routine volume:
     axis vectors are left-handed
     file O.pbesol-n-kjpaw_psl.0.1.UPF: wavefunction(s)  2P renormalized

     Subspace diagonalization in iterative solution of the eigenvalue problem:
     a serial algorithm will be used

     Message from routine setup:
     using ibrav=0 with symmetry is DISCOURAGED, use correct ibrav instead
     First shells distances (in Bohr):
     shell:   1    0.000000
     shell:   2    4.027403
     shell:   3    5.684134
     shell:   4    5.707060
     shell:   5    6.947532
     shell:   6    6.985020
     shell:   7    8.054807

     i    j  dist (Bohr)       stan-stan stan-bac bac-bac bac-stan
     1    1   0.00000000  V =    0.0000   0.0000   0.0000   0.0000
     2    2   0.00000000  V =    0.0000   0.0000   0.0000   0.0000
     3    3   0.00000000  V =    0.0000   0.0000   0.0000   0.0000
     4    4   0.00000000  V =    0.0000   0.0000   0.0000   0.0000
 
     Parallelization info
     --------------------
     sticks:   dense  smooth     PW     G-vecs:    dense   smooth      PW
     Min         150      74     24                 2587      920     173
     Max         151      75     25                 2588      922     174
     Sum        1201     597    199                20701     7367    1387
 


     bravais-lattice index     =            0
     lattice parameter (alat)  =       8.0000  a.u.
     unit-cell volume          =     261.2912 (a.u.)^3
     number of atoms/cell      =            4
     number of atomic types    =            3
     number of electrons       =        46.00
     number of Kohn-Sham states=           28
     kinetic-energy cutoff     =      35.0000  Ry
     charge density cutoff     =     280.0000  Ry
     scf convergence threshold =      1.0E-10
     mixing beta               =       0.7000
     number of iterations used =            8  plain     mixing
     Exchange-correlation= SLA  PW   PSX  PSC
                           (   1   4  10   8   0   0   0)

     celldm(1)=   8.000000  celldm(2)=   0.000000  celldm(3)=   0.000000
     celldm(4)=   0.000000  celldm(5)=   0.000000  celldm(6)=   0.000000

     crystal axes: (cart. coord. in units of alat)
               a(1) = (   0.500381   0.500381   1.004818 )  
               a(2) = (   0.500381   1.004818   0.500381 )  
               a(3) = (   1.004818   0.500381   0.500381 )  

     reciprocal axes: (cart. coord. in units 2 pi/alat)
               b(1) = ( -0.494599 -0.494599  1.487807 )  
               b(2) = ( -0.494599  1.487807 -0.494599 )  
               b(3) = (  1.487807 -0.494599 -0.494599 )  


     PseudoPot. # 1 for Co read from file:
     ../files/pseudo/co_pbesol_v1.2.uspp.F.UPF
     MD5 check sum: 3b4cd4e7cc7df4da9fdede0fd33e2193
     Pseudo is Ultrasoft + core correction, Zval = 17.0
     Generated by new atomic code, or converted to UPF format
     Using radial grid of  863 points,  6 beta functions with: 
                l(1) =   0
                l(2) =   0
                l(3) =   1
                l(4) =   1
                l(5) =   2
                l(6) =   2
     Q(r) pseudized with  8 coefficients,  rinner =    1.200   1.200   1.200
                                                       1.200   1.200

     PseudoPot. # 2 for Co read from file:
     ../files/pseudo/co_pbesol_v1.2.uspp.F.UPF
     MD5 check sum: 3b4cd4e7cc7df4da9fdede0fd33e2193
     Pseudo is Ultrasoft + core correction, Zval = 17.0
     Generated by new atomic code, or converted to UPF format
     Using radial grid of  863 points,  6 beta functions with: 
                l(1) =   0
                l(2) =   0
                l(3) =   1
                l(4) =   1
                l(5) =   2
                l(6) =   2
     Q(r) pseudized with  8 coefficients,  rinner =    1.200   1.200   1.200
                                                       1.200   1.200

     PseudoPot. # 3 for O  read from file:
     ../files/pseudo/O.pbesol-n-kjpaw_psl.0.1.UPF
     MD5 check sum: 126339daddaa87477ab44acfa0b5aa00
     Pseudo is Projector augmented-wave + core cor, Zval =  6.0
     Generated using "atomic" code by A. Dal Corso  v.6.0 svn rev. 13079
     Shape of augmentation charge: BESSEL
     Using radial grid of 1095 points,  4 beta functions with: 
                l(1) =   0
                l(2) =   0
                l(3) =   1
                l(4) =   1
     Q(r) pseudized with 0 coefficients 


     atomic species   valence    mass     pseudopotential
        Co1           17.00    58.93319     Co( 1.00)
        Co2           17.00    58.93319     Co( 1.00)
        O              6.00    15.99900     O ( 1.00)

     Starting magnetic structure 
     atomic species   magnetization
        Co1          0.500
        Co2         -0.500
        O            0.000



     12 Sym. Ops., with inversion, found


                                    s                        frac. trans.

      isym =  1     identity                                     

 cryst.   s( 1) = (     1          0          0      )
                  (     0          1          0      )
                  (     0          0          1      )

 cart.    s( 1) = (  1.0000000 -0.0000000 -0.0000000 )
                  ( -0.0000000  1.0000000 -0.0000000 )
                  ( -0.0000000 -0.0000000  1.0000000 )


      isym =  2     180 deg rotation - cart. axis [1,-1,0]       

 cryst.   s( 2) = (    -1          0          0      )
                  (     0          0         -1      )
                  (     0         -1          0      )

 cart.    s( 2) = (  0.0000000 -1.0000000  0.0000000 )
                  ( -1.0000000  0.0000000  0.0000000 )
                  (  0.0000000  0.0000000 -1.0000000 )


      isym =  3     180 deg rotation - cart. axis [-1,0,1]       

 cryst.   s( 3) = (     0          0         -1      )
                  (     0         -1          0      )
                  (    -1          0          0      )

 cart.    s( 3) = (  0.0000000  0.0000000 -1.0000000 )
                  (  0.0000000 -1.0000000  0.0000000 )
                  ( -1.0000000  0.0000000  0.0000000 )


      isym =  4     180 deg rotation - cart. axis [0,1,-1]       

 cryst.   s( 4) = (     0         -1          0      )
                  (    -1          0          0      )
                  (     0          0         -1      )

 cart.    s( 4) = ( -1.0000000  0.0000000  0.0000000 )
                  (  0.0000000  0.0000000 -1.0000000 )
                  (  0.0000000 -1.0000000  0.0000000 )


      isym =  5     120 deg rotation - cart. axis [-1,-1,-1]     

 cryst.   s( 5) = (     0          1          0      )
                  (     0          0          1      )
                  (     1          0          0      )

 cart.    s( 5) = ( -0.0000000  1.0000000 -0.0000000 )
                  ( -0.0000000 -0.0000000  1.0000000 )
                  (  1.0000000 -0.0000000 -0.0000000 )


      isym =  6     120 deg rotation - cart. axis [1,1,1]        

 cryst.   s( 6) = (     0          0          1      )
                  (     1          0          0      )
                  (     0          1          0      )

 cart.    s( 6) = ( -0.0000000 -0.0000000  1.0000000 )
                  (  1.0000000 -0.0000000 -0.0000000 )
                  ( -0.0000000  1.0000000 -0.0000000 )


      isym =  7     inversion                                    

 cryst.   s( 7) = (    -1          0          0      )
                  (     0         -1          0      )
                  (     0          0         -1      )

 cart.    s( 7) = ( -1.0000000  0.0000000  0.0000000 )
                  (  0.0000000 -1.0000000  0.0000000 )
                  (  0.0000000  0.0000000 -1.0000000 )


      isym =  8     inv. 180 deg rotation - cart. axis [1,-1,0]  

 cryst.   s( 8) = (     1          0          0      )
                  (     0          0          1      )
                  (     0          1          0      )

 cart.    s( 8) = ( -0.0000000  1.0000000 -0.0000000 )
                  (  1.0000000 -0.0000000 -0.0000000 )
                  ( -0.0000000 -0.0000000  1.0000000 )


      isym =  9     inv. 180 deg rotation - cart. axis [-1,0,1]  

 cryst.   s( 9) = (     0          0          1      )
                  (     0          1          0      )
                  (     1          0          0      )

 cart.    s( 9) = ( -0.0000000 -0.0000000  1.0000000 )
                  ( -0.0000000  1.0000000 -0.0000000 )
                  (  1.0000000 -0.0000000 -0.0000000 )


      isym = 10     inv. 180 deg rotation - cart. axis [0,1,-1]  

 cryst.   s(10) = (     0          1          0      )
                  (     1          0          0      )
                  (     0          0          1      )

 cart.    s(10) = (  1.0000000 -0.0000000 -0.0000000 )
                  ( -0.0000000 -0.0000000  1.0000000 )
                  ( -0.0000000  1.0000000 -0.0000000 )


      isym = 11     inv. 120 deg rotation - cart. axis [-1,-1,-1]

 cryst.   s(11) = (     0         -1          0      )
                  (     0          0         -1      )
                  (    -1          0          0      )

 cart.    s(11) = (  0.0000000 -1.0000000  0.0000000 )
                  (  0.0000000  0.0000000 -1.0000000 )
                  ( -1.0000000  0.0000000  0.0000000 )


      isym = 12     inv. 120 deg rotation - cart. axis [1,1,1]   

 cryst.   s(12) = (     0          0         -1      )
                  (    -1          0          0      )
                  (     0         -1          0      )

 cart.    s(12) = (  0.0000000  0.0000000 -1.0000000 )
                  ( -1.0000000  0.0000000  0.0000000 )
                  (  0.0000000 -1.0000000  0.0000000 )


   Cartesian axes

     site n.     atom                  positions (alat units)
         1           Co1 tau(   1) = (   0.0000000   0.0000000   0.0000000  )
         2           Co2 tau(   2) = (   1.0027898   1.0027898   1.0027898  )
         3           O   tau(   3) = (   0.5013949   0.5013949   0.5013949  )
         4           O   tau(   4) = (   1.5041847   1.5041847   1.5041847  )

   Crystallographic axes

     site n.     atom                  positions (cryst. coord.)
         1           Co1 tau(   1) = (  0.0000000  0.0000000  0.0000000  )
         2           Co2 tau(   2) = (  0.5000000  0.5000000  0.5000000  )
         3           O   tau(   3) = (  0.2500000  0.2500000  0.2500000  )
         4           O   tau(   4) = (  0.7500000  0.7500000  0.7500000  )

     number of k points=     6  Marzari-Vanderbilt smearing, width (Ry)=  0.0200
                       cart. coord. in units 2pi/alat
        k(    1) = (   0.0000000   0.0000000   0.0000000), wk =   0.0370370
        k(    2) = (   0.4959356  -0.1648663  -0.1648663), wk =   0.2222222
        k(    3) = (   0.3310693   0.3310693  -0.3297326), wk =   0.2222222
        k(    4) = (  -0.6608019   0.6608019   0.0000000), wk =   0.2222222
        k(    5) = (   0.1662030   0.1662030   0.1662030), wk =   0.0740741
        k(    6) = (  -0.8256682   0.4959356   0.4959356), wk =   0.2222222

                       cryst. coord.
        k(    1) = (   0.0000000   0.0000000   0.0000000), wk =   0.0370370
        k(    2) = (  -0.0000000  -0.0000000   0.3333333), wk =   0.2222222
        k(    3) = (  -0.0000000   0.3333333   0.3333333), wk =   0.2222222
        k(    4) = (   0.0000000   0.3333333  -0.3333333), wk =   0.2222222
        k(    5) = (   0.3333333   0.3333333   0.3333333), wk =   0.0740741
        k(    6) = (   0.3333333   0.3333333  -0.3333333), wk =   0.2222222

     Dense  grid:    20701 G-vectors     FFT dimensions: (  54,  54,  54)

     Smooth grid:     7367 G-vectors     FFT dimensions: (  40,  40,  40)

     Dynamical RAM for                 wfc:       0.05 MB

     Dynamical RAM for     wfc (w. buffer):       0.63 MB

     Dynamical RAM for             U proj.:       0.03 MB

     Dynamical RAM for  U proj. (w. buff.):       0.36 MB

     Dynamical RAM for           str. fact:       0.12 MB

     Dynamical RAM for           local pot:       0.00 MB

     Dynamical RAM for          nlocal pot:       0.09 MB

     Dynamical RAM for                qrad:       4.03 MB

     Dynamical RAM for          rho,v,vnew:       1.17 MB

     Dynamical RAM for               rhoin:       0.39 MB

     Dynamical RAM for            rho*nmix:       1.26 MB

     Dynamical RAM for           G-vectors:       0.16 MB

     Dynamical RAM for          h,s,v(r/c):       0.14 MB

     Dynamical RAM for          <psi|beta>:       0.02 MB

     Dynamical RAM for                 psi:       0.10 MB

     Dynamical RAM for                hpsi:       0.10 MB

     Dynamical RAM for                spsi:       0.10 MB

     Dynamical RAM for      wfcinit/wfcrot:       0.15 MB

     Dynamical RAM for           addusdens:       7.46 MB

     Estimated static dynamical RAM per process >       9.31 MB

     Estimated max dynamical RAM per process >      16.77 MB

     Estimated total dynamical RAM >     134.17 MB

     Check: negative core charge=   -0.000039
     Generating pointlists ...
     new r_m :   0.2077 (alat units)  1.6613 (a.u.) for type    1
     new r_m :   0.2077 (alat units)  1.6613 (a.u.) for type    2
     new r_m :   0.2077 (alat units)  1.6613 (a.u.) for type    3

     Initial potential from superposition of free atoms

     starting charge   43.99998, renormalised to   46.00000
 --- in v_hubbard_extended ---
Hubbard energy    0.0000
 -----------------------------
     Number of +U iterations with fixed ns =  0
     Starting occupations:
 --- enter write_nsg ---
 Atom:    1   Spin:  1
    eigenvalues and eigenvectors of the occupation matrix:
  1.000
  1.000  0.000  0.000  0.000  0.000
  1.000
  0.000  1.000  0.000  0.000  0.000
  1.000
  0.000  0.000  1.000  0.000  0.000
  1.000
  0.000  0.000  0.000  1.000  0.000
  1.000
  0.000  0.000  0.000  0.000  1.000
    occupation matrix before diagonalization:
  1.000  0.000  0.000  0.000  0.000
  0.000  1.000  0.000  0.000  0.000
  0.000  0.000  1.000  0.000  0.000
  0.000  0.000  0.000  1.000  0.000
  0.000  0.000  0.000  0.000  1.000
 Atom:    2   Spin:  1
    eigenvalues and eigenvectors of the occupation matrix:
  0.400
  1.000  0.000  0.000  0.000  0.000
  0.400
  0.000  1.000  0.000  0.000  0.000
  0.400
  0.000  0.000  1.000  0.000  0.000
  0.400
  0.000  0.000  0.000  1.000  0.000
  0.400
  0.000  0.000  0.000  0.000  1.000
    occupation matrix before diagonalization:
  0.400  0.000  0.000  0.000  0.000
  0.000  0.400  0.000  0.000  0.000
  0.000  0.000  0.400  0.000  0.000
  0.000  0.000  0.000  0.400  0.000
  0.000  0.000  0.000  0.000  0.400
 Atom:    3   Spin:  1
    eigenvalues and eigenvectors of the occupation matrix:
  0.667
  1.000  0.000  0.000
  0.667
  0.000  1.000  0.000
  0.667
  0.000  0.000  1.000
    occupation matrix before diagonalization:
  0.667  0.000  0.000
  0.000  0.667  0.000
  0.000  0.000  0.667
 Atom:    4   Spin:  1
    eigenvalues and eigenvectors of the occupation matrix:
  0.667
  1.000  0.000  0.000
  0.667
  0.000  1.000  0.000
  0.667
  0.000  0.000  1.000
    occupation matrix before diagonalization:
  0.667  0.000  0.000
  0.000  0.667  0.000
  0.000  0.000  0.667
 Atom:    1   Spin:  2
    eigenvalues and eigenvectors of the occupation matrix:
  0.400
  1.000  0.000  0.000  0.000  0.000
  0.400
  0.000  1.000  0.000  0.000  0.000
  0.400
  0.000  0.000  1.000  0.000  0.000
  0.400
  0.000  0.000  0.000  1.000  0.000
  0.400
  0.000  0.000  0.000  0.000  1.000
    occupation matrix before diagonalization:
  0.400  0.000  0.000  0.000  0.000
  0.000  0.400  0.000  0.000  0.000
  0.000  0.000  0.400  0.000  0.000
  0.000  0.000  0.000  0.400  0.000
  0.000  0.000  0.000  0.000  0.400
 Atom:    2   Spin:  2
    eigenvalues and eigenvectors of the occupation matrix:
  1.000
  1.000  0.000  0.000  0.000  0.000
  1.000
  0.000  1.000  0.000  0.000  0.000
  1.000
  0.000  0.000  1.000  0.000  0.000
  1.000
  0.000  0.000  0.000  1.000  0.000
  1.000
  0.000  0.000  0.000  0.000  1.000
    occupation matrix before diagonalization:
  1.000  0.000  0.000  0.000  0.000
  0.000  1.000  0.000  0.000  0.000
  0.000  0.000  1.000  0.000  0.000
  0.000  0.000  0.000  1.000  0.000
  0.000  0.000  0.000  0.000  1.000
 Atom:    3   Spin:  2
    eigenvalues and eigenvectors of the occupation matrix:
  0.667
  1.000  0.000  0.000
  0.667
  0.000  1.000  0.000
  0.667
  0.000  0.000  1.000
    occupation matrix before diagonalization:
  0.667  0.000  0.000
  0.000  0.667  0.000
  0.000  0.000  0.667
 Atom:    4   Spin:  2
    eigenvalues and eigenvectors of the occupation matrix:
  0.667
  1.000  0.000  0.000
  0.667
  0.000  1.000  0.000
  0.667
  0.000  0.000  1.000
    occupation matrix before diagonalization:
  0.667  0.000  0.000
  0.000  0.667  0.000
  0.000  0.000  0.667
atom    1   Tr[ns(na)]=   7.0000000
atom    1   Mag[ns(na)]=   3.0000000
atom    2   Tr[ns(na)]=   7.0000000
atom    2   Mag[ns(na)]=  -3.0000000
atom    3   Tr[ns(na)]=   4.0000000
atom    3   Mag[ns(na)]=   0.0000000
atom    4   Tr[ns(na)]=   4.0000000
atom    4   Mag[ns(na)]=   0.0000000
 --- exit write_nsg ---
 Atomic wfc used for LDA+U Projector are orthogonalized
     Starting wfcs are   34 randomized atomic wfcs
     Checking if some PAW data can be deallocated... 
       PAW data deallocated on    4 nodes for type:  3

     total cpu time spent up to now is        0.6 secs

     Self-consistent Calculation

     iteration #  1     ecut=    35.00 Ry     beta= 0.70
     Davidson diagonalization with overlap
     ethr =  1.00E-02,  avg # of iterations =  2.8
 --- enter write_nsg ---
 Atom:    1   Spin:  1
    eigenvalues and eigenvectors of the occupation matrix:
  0.924
  0.010  0.187 -0.782 -0.009 -0.595
  0.924
  0.009 -0.795  0.235  0.010 -0.560
  0.925
 -0.000 -0.577 -0.577  0.000  0.577
  0.977
 -0.996 -0.005 -0.006  0.089 -0.011
  0.977
 -0.089 -0.010  0.009 -0.996 -0.001
    occupation matrix before diagonalization:
  0.977  0.000  0.000  0.000  0.001
  0.000  0.924  0.001  0.001 -0.001
  0.000  0.001  0.924 -0.001 -0.001
  0.000  0.001 -0.001  0.977 -0.000
  0.001 -0.001 -0.001 -0.000  0.924
 Atom:    2   Spin:  1
    eigenvalues and eigenvectors of the occupation matrix:
  0.050
  0.964 -0.009 -0.025 -0.261 -0.035
  0.050
  0.261 -0.035  0.025  0.964 -0.009
  0.127
 -0.000  0.577  0.577  0.000 -0.577
  0.164
 -0.037  0.042 -0.726  0.024 -0.685
  0.164
  0.024  0.815 -0.371  0.037  0.444
    occupation matrix before diagonalization:
  0.050  0.002  0.002  0.000  0.004
  0.002  0.151 -0.012  0.004  0.012
  0.002 -0.012  0.151 -0.004  0.012
  0.000  0.004 -0.004  0.050 -0.000
  0.004  0.012  0.012 -0.000  0.151
 Atom:    3   Spin:  1
    eigenvalues and eigenvectors of the occupation matrix:
  0.911
  0.667  0.741 -0.074
  0.911
 -0.471  0.342 -0.813
  0.914
 -0.577  0.577  0.577
    occupation matrix before diagonalization:
  0.912 -0.001 -0.001
 -0.001  0.912  0.001
 -0.001  0.001  0.912
 Atom:    4   Spin:  1
    eigenvalues and eigenvectors of the occupation matrix:
  0.911
  0.684  0.728 -0.045
  0.911
 -0.447  0.369 -0.815
  0.914
 -0.577  0.577  0.577
    occupation matrix before diagonalization:
  0.912 -0.001 -0.001
 -0.001  0.912  0.001
 -0.001  0.001  0.912
 Atom:    1   Spin:  2
    eigenvalues and eigenvectors of the occupation matrix:
  0.050
  0.934 -0.006 -0.029 -0.353 -0.035
  0.050
  0.353 -0.037  0.024  0.934 -0.013
  0.128
 -0.000  0.577  0.577  0.000 -0.577
  0.164
 -0.038  0.056 -0.733  0.025 -0.676
  0.164
  0.025  0.814 -0.358  0.038  0.456
    occupation matrix before diagonalization:
  0.051  0.002  0.002  0.000  0.004
  0.002  0.152 -0.012  0.004  0.012
  0.002 -0.012  0.152 -0.004  0.012
  0.000  0.004 -0.004  0.051 -0.000
  0.004  0.012  0.012 -0.000  0.152
 Atom:    2   Spin:  2
    eigenvalues and eigenvectors of the occupation matrix:
  0.924
 -0.011 -0.235  0.795  0.012  0.560
  0.924
  0.012 -0.782  0.187  0.011 -0.594
  0.925
 -0.000 -0.577 -0.577  0.000  0.577
  0.977
 -0.949 -0.003 -0.010  0.316 -0.012
  0.977
 -0.316 -0.013  0.009 -0.949 -0.004
    occupation matrix before diagonalization:
  0.977  0.000  0.000  0.000  0.001
  0.000  0.924  0.000  0.001 -0.000
  0.000  0.000  0.924 -0.001 -0.000
  0.000  0.001 -0.001  0.977 -0.000
  0.001 -0.000 -0.000 -0.000  0.924
 Atom:    3   Spin:  2
    eigenvalues and eigenvectors of the occupation matrix:
  0.911
  0.707  0.707  0.000
  0.911
 -0.408  0.408 -0.816
  0.914
 -0.577  0.577  0.577
    occupation matrix before diagonalization:
  0.912 -0.001 -0.001
 -0.001  0.912  0.001
 -0.001  0.001  0.912
 Atom:    4   Spin:  2
    eigenvalues and eigenvectors of the occupation matrix:
  0.911
  0.707  0.707  0.000
  0.911
 -0.408  0.408 -0.816
  0.914
 -0.577  0.577  0.577
    occupation matrix before diagonalization:
  0.912 -0.001 -0.001
 -0.001  0.912  0.001
 -0.001  0.001  0.912
atom    1   Tr[ns(na)]=   5.2842246
atom    1   Mag[ns(na)]=   4.1699220
atom    2   Tr[ns(na)]=   5.2819911
atom    2   Mag[ns(na)]=  -4.1718976
atom    3   Tr[ns(na)]=   5.4727047
atom    3   Mag[ns(na)]=  -0.0000700
atom    4   Tr[ns(na)]=   5.4727047
atom    4   Mag[ns(na)]=  -0.0000700
 --- exit write_nsg ---
 --- in v_hubbard_extended ---
Hubbard energy    0.0000
 -----------------------------

     total cpu time spent up to now is        0.9 secs

     total energy              =    -669.90088561 Ry
     estimated scf accuracy    <      14.55222224 Ry

     total magnetization       =    -0.00 Bohr mag/cell
     absolute magnetization    =     8.80 Bohr mag/cell

     iteration #  2     ecut=    35.00 Ry     beta= 0.70
     Davidson diagonalization with overlap
     ethr =  1.00E-02,  avg # of iterations =  3.0
 --- enter write_nsg ---
 Atom:    1   Spin:  1
    eigenvalues and eigenvectors of the occupation matrix:
  0.961
 -0.033  0.300 -0.806  0.042 -0.507
  0.961
  0.042  0.758 -0.120  0.033  0.639
  0.961
 -0.000 -0.577 -0.577  0.000  0.577
  0.966
  0.867 -0.000 -0.038 -0.496 -0.038
  0.966
  0.496 -0.044  0.022  0.867 -0.022
    occupation matrix before diagonalization:
  0.966 -0.000 -0.000  0.000 -0.000
 -0.000  0.961  0.000 -0.000 -0.000
 -0.000  0.000  0.961  0.000 -0.000
  0.000 -0.000  0.000  0.966 -0.000
 -0.000 -0.000 -0.000 -0.000  0.961
 Atom:    2   Spin:  1
    eigenvalues and eigenvectors of the occupation matrix:
  0.971
 -0.000 -0.577 -0.577  0.000  0.577
  0.971
  0.043 -0.156  0.771 -0.038  0.615
  0.971
  0.038  0.800 -0.265  0.043  0.535
  0.974
  0.926 -0.007 -0.037 -0.373 -0.044
  0.974
  0.373 -0.047  0.029  0.926 -0.018
    occupation matrix before diagonalization:
  0.974 -0.000 -0.000  0.000 -0.000
 -0.000  0.971 -0.000 -0.000  0.000
 -0.000 -0.000  0.971  0.000  0.000
  0.000 -0.000  0.000  0.974 -0.000
 -0.000  0.000  0.000 -0.000  0.971
 Atom:    3   Spin:  1
    eigenvalues and eigenvectors of the occupation matrix:
  0.193
  0.707  0.707  0.000
  0.193
 -0.408  0.408 -0.816
  0.195
 -0.577  0.577  0.577
    occupation matrix before diagonalization:
  0.193 -0.001 -0.001
 -0.001  0.193  0.001
 -0.001  0.001  0.193
 Atom:    4   Spin:  1
    eigenvalues and eigenvectors of the occupation matrix:
  0.193
  0.707  0.707  0.000
  0.193
 -0.408  0.408 -0.816
  0.195
 -0.577  0.577  0.577
    occupation matrix before diagonalization:
  0.193 -0.001 -0.001
 -0.001  0.193  0.001
 -0.001  0.001  0.193
 Atom:    1   Spin:  2
    eigenvalues and eigenvectors of the occupation matrix:
  0.971
 -0.000 -0.577 -0.577  0.000  0.577
  0.971
  0.041 -0.233  0.793 -0.044  0.560
  0.971
 -0.044 -0.781  0.189 -0.041 -0.592
  0.974
  0.961 -0.012 -0.035 -0.268 -0.047
  0.974
  0.268 -0.048  0.034  0.961 -0.013
    occupation matrix before diagonalization:
  0.974 -0.000 -0.000  0.000 -0.000
 -0.000  0.971 -0.000 -0.000  0.000
 -0.000 -0.000  0.971  0.000  0.000
  0.000 -0.000  0.000  0.974 -0.000
 -0.000  0.000  0.000 -0.000  0.971
 Atom:    2   Spin:  2
    eigenvalues and eigenvectors of the occupation matrix:
  0.961
 -0.045  0.094 -0.748  0.033 -0.655
  0.961
 -0.033 -0.810  0.324 -0.045 -0.486
  0.961
 -0.000 -0.577 -0.577 -0.000  0.577
  0.966
  0.884 -0.002 -0.039 -0.465 -0.040
  0.966
  0.465 -0.046  0.024  0.884 -0.021
    occupation matrix before diagonalization:
  0.966 -0.000 -0.000  0.000 -0.000
 -0.000  0.961  0.000 -0.000 -0.000
 -0.000  0.000  0.961  0.000 -0.000
  0.000 -0.000  0.000  0.966 -0.000
 -0.000 -0.000 -0.000 -0.000  0.961
 Atom:    3   Spin:  2
    eigenvalues and eigenvectors of the occupation matrix:
  0.193
  0.707  0.707  0.000
  0.193
 -0.408  0.408 -0.816
  0.195
 -0.577  0.577  0.577
    occupation matrix before diagonalization:
  0.193 -0.001 -0.001
 -0.001  0.193  0.001
 -0.001  0.001  0.193
 Atom:    4   Spin:  2
    eigenvalues and eigenvectors of the occupation matrix:
  0.193
  0.707  0.707  0.000
  0.193
 -0.408  0.408 -0.816
  0.195
 -0.577  0.577  0.577
    occupation matrix before diagonalization:
  0.193 -0.001 -0.001
 -0.001  0.193  0.001
 -0.001  0.001  0.193
atom    1   Tr[ns(na)]=   9.6777297
atom    1   Mag[ns(na)]=  -0.0446581
atom    2   Tr[ns(na)]=   9.6769369
atom    2   Mag[ns(na)]=   0.0449014
atom    3   Tr[ns(na)]=   1.1608482
atom    3   Mag[ns(na)]=   0.0000639
atom    4   Tr[ns(na)]=   1.1608482
atom    4   Mag[ns(na)]=   0.0000639
 --- exit write_nsg ---
 --- in v_hubbard_extended ---
Hubbard energy    0.0000
 -----------------------------

     total cpu time spent up to now is        1.4 secs

     total energy              =    -673.06197641 Ry
     estimated scf accuracy    <      65.99846859 Ry

     total magnetization       =    -0.00 Bohr mag/cell
     absolute magnetization    =     0.60 Bohr mag/cell

     iteration #  3     ecut=    35.00 Ry     beta= 0.70
     Davidson diagonalization with overlap
     ethr =  1.00E-02,  avg # of iterations =  3.0
 --- enter write_nsg ---
 Atom:    1   Spin:  1
    eigenvalues and eigenvectors of the occupation matrix:
  0.985
 -0.834  0.003 -0.042  0.549 -0.039
  0.985
 -0.549 -0.047  0.021 -0.834 -0.026
  0.997
  0.000  0.577  0.577  0.000 -0.577
  0.997
 -0.035 -0.311  0.808  0.045  0.497
  0.997
 -0.045  0.754 -0.108 -0.035  0.646
    occupation matrix before diagonalization:
  0.985 -0.000 -0.000  0.000 -0.001
 -0.000  0.997 -0.000 -0.000  0.000
 -0.000 -0.000  0.997  0.000  0.000
  0.000 -0.000  0.000  0.985 -0.000
 -0.001  0.000  0.000 -0.000  0.997
 Atom:    2   Spin:  1
    eigenvalues and eigenvectors of the occupation matrix:
  0.244
 -0.982 -0.031 -0.016 -0.182 -0.047
  0.244
  0.182 -0.036  0.045 -0.982  0.009
  0.677
 -0.000  0.577  0.577  0.000 -0.577
  0.688
  0.042  0.197 -0.783 -0.040 -0.587
  0.688
  0.040 -0.791  0.225  0.042 -0.566
    occupation matrix before diagonalization:
  0.246 -0.011 -0.011  0.000 -0.021
 -0.011  0.683 -0.003 -0.018  0.003
 -0.011 -0.003  0.683  0.018  0.003
  0.000 -0.018  0.018  0.246 -0.000
 -0.021  0.003  0.003 -0.000  0.683
 Atom:    3   Spin:  1
    eigenvalues and eigenvectors of the occupation matrix:
  0.773
  0.707  0.707  0.000
  0.773
 -0.408  0.408 -0.816
  0.775
 -0.577  0.577  0.577
    occupation matrix before diagonalization:
  0.774 -0.001 -0.001
 -0.001  0.774  0.001
 -0.001  0.001  0.774
 Atom:    4   Spin:  1
    eigenvalues and eigenvectors of the occupation matrix:
  0.773
  0.707  0.707  0.000
  0.773
 -0.408  0.408 -0.816
  0.775
 -0.577  0.577  0.577
    occupation matrix before diagonalization:
  0.774 -0.001 -0.001
 -0.001  0.774  0.001
 -0.001  0.001  0.774
 Atom:    1   Spin:  2
    eigenvalues and eigenvectors of the occupation matrix:
  0.242
  0.992  0.021  0.032 -0.109  0.053
  0.242
 -0.109 -0.049  0.043 -0.992 -0.006
  0.659
 -0.000  0.577  0.577  0.000 -0.577
  0.669
  0.051  0.130 -0.762 -0.041 -0.631
  0.669
 -0.041  0.804 -0.289 -0.051  0.515
    occupation matrix before diagonalization:
  0.244 -0.011 -0.011  0.000 -0.023
 -0.011  0.664 -0.003 -0.020  0.003
 -0.011 -0.003  0.664  0.020  0.003
  0.000 -0.020  0.020  0.244 -0.000
 -0.023  0.003  0.003 -0.000  0.664
 Atom:    2   Spin:  2
    eigenvalues and eigenvectors of the occupation matrix:
  0.985
  0.887  0.002  0.040 -0.459  0.043
  0.985
  0.459  0.048 -0.026  0.887  0.022
  0.997
  0.000  0.577  0.577  0.000 -0.577
  0.997
 -0.038 -0.277  0.802  0.045  0.525
  0.997
 -0.045  0.767 -0.143 -0.038  0.623
    occupation matrix before diagonalization:
  0.985 -0.000 -0.000  0.000 -0.001
 -0.000  0.997 -0.000 -0.000  0.000
 -0.000 -0.000  0.997  0.000  0.000
  0.000 -0.000  0.000  0.985 -0.000
 -0.001  0.000  0.000 -0.000  0.997
 Atom:    3   Spin:  2
    eigenvalues and eigenvectors of the occupation matrix:
  0.773
  0.707  0.707  0.000
  0.773
 -0.408  0.408 -0.816
  0.775
 -0.577  0.577  0.577
    occupation matrix before diagonalization:
  0.774 -0.001 -0.001
 -0.001  0.774  0.001
 -0.001  0.001  0.774
 Atom:    4   Spin:  2
    eigenvalues and eigenvectors of the occupation matrix:
  0.773
  0.707  0.707  0.000
  0.773
 -0.408  0.408 -0.816
  0.775
 -0.577  0.577  0.577
    occupation matrix before diagonalization:
  0.774 -0.001 -0.001
 -0.001  0.774  0.001
 -0.001  0.001  0.774
atom    1   Tr[ns(na)]=   7.4410407
atom    1   Mag[ns(na)]=   2.4798917
atom    2   Tr[ns(na)]=   7.5008016
atom    2   Mag[ns(na)]=  -2.4205983
atom    3   Tr[ns(na)]=   4.6424760
atom    3   Mag[ns(na)]=   0.0005657
atom    4   Tr[ns(na)]=   4.6424760
atom    4   Mag[ns(na)]=   0.0005657
 --- exit write_nsg ---
 --- in v_hubbard_extended ---
Hubbard energy    0.0000
 -----------------------------

     total cpu time spent up to now is        1.8 secs

     total energy              =    -678.60674539 Ry
     estimated scf accuracy    <       0.55889299 Ry

     total magnetization       =     0.06 Bohr mag/cell
     absolute magnetization    =     5.21 Bohr mag/cell

     iteration #  4     ecut=    35.00 Ry     beta= 0.70
     Davidson diagonalization with overlap
     ethr =  1.21E-03,  avg # of iterations =  2.1
 --- enter write_nsg ---
 Atom:    1   Spin:  1
    eigenvalues and eigenvectors of the occupation matrix:
  0.981
  0.978  0.036  0.066 -0.164  0.102
  0.981
 -0.164 -0.097  0.080 -0.978 -0.017
  0.993
 -0.000  0.577  0.577  0.000 -0.577
  0.993
  0.095  0.159 -0.767 -0.084 -0.608
  0.993
 -0.084  0.794 -0.259 -0.095  0.535
    occupation matrix before diagonalization:
  0.981 -0.001 -0.001  0.000 -0.001
 -0.001  0.993 -0.000 -0.001  0.000
 -0.001 -0.000  0.993  0.001  0.000
  0.000 -0.001  0.001  0.981 -0.000
 -0.001  0.000  0.000 -0.000  0.993
 Atom:    2   Spin:  1
    eigenvalues and eigenvectors of the occupation matrix:
  0.198
 -0.817  0.008 -0.196  0.509 -0.189
  0.198
 -0.509 -0.222  0.105 -0.817 -0.118
  0.324
 -0.000  0.577  0.577  0.000 -0.577
  0.374
  0.135  0.395 -0.786 -0.236 -0.391
  0.374
  0.236 -0.679 -0.002  0.135 -0.682
    occupation matrix before diagonalization:
  0.211 -0.019 -0.019  0.000 -0.038
 -0.019  0.349 -0.012 -0.033  0.012
 -0.019 -0.012  0.349  0.033  0.012
  0.000 -0.033  0.033  0.211 -0.000
 -0.038  0.012  0.012 -0.000  0.349
 Atom:    3   Spin:  1
    eigenvalues and eigenvectors of the occupation matrix:
  0.755
  0.707  0.707  0.000
  0.755
 -0.408  0.408 -0.816
  0.760
 -0.577  0.577  0.577
    occupation matrix before diagonalization:
  0.757 -0.002 -0.002
 -0.002  0.757  0.002
 -0.002  0.002  0.757
 Atom:    4   Spin:  1
    eigenvalues and eigenvectors of the occupation matrix:
  0.755
  0.707  0.707  0.000
  0.755
 -0.408  0.408 -0.816
  0.760
 -0.577  0.577  0.577
    occupation matrix before diagonalization:
  0.757 -0.002 -0.002
 -0.002  0.757  0.002
 -0.002  0.002  0.757
 Atom:    1   Spin:  2
    eigenvalues and eigenvectors of the occupation matrix:
  0.293
  0.812  0.001 -0.007 -0.583 -0.006
  0.293
  0.583 -0.008  0.003  0.812 -0.005
  0.952
 -0.000  0.577  0.577  0.000 -0.577
  0.996
  0.006 -0.272  0.803 -0.007  0.531
  0.996
  0.007  0.770 -0.150  0.006  0.620
    occupation matrix before diagonalization:
  0.293  0.003  0.003  0.000  0.006
  0.003  0.982 -0.015  0.005  0.015
  0.003 -0.015  0.982 -0.005  0.015
  0.000  0.005 -0.005  0.293 -0.000
  0.006  0.015  0.015 -0.000  0.982
 Atom:    2   Spin:  2
    eigenvalues and eigenvectors of the occupation matrix:
  0.966
 -0.928 -0.002 -0.012  0.371 -0.014
  0.966
 -0.371 -0.015  0.009 -0.928 -0.006
  0.992
 -0.000  0.577  0.577  0.000 -0.577
  0.993
  0.014  0.138 -0.766 -0.012 -0.628
  0.993
 -0.012  0.805 -0.283 -0.014  0.522
    occupation matrix before diagonalization:
  0.966 -0.000 -0.000  0.000 -0.000
 -0.000  0.992 -0.000 -0.000  0.000
 -0.000 -0.000  0.992  0.000  0.000
  0.000 -0.000  0.000  0.966 -0.000
 -0.000  0.000  0.000 -0.000  0.992
 Atom:    3   Spin:  2
    eigenvalues and eigenvectors of the occupation matrix:
  0.756
 -0.577  0.577  0.577
  0.762
  0.707  0.707  0.000
  0.762
  0.408 -0.408  0.816
    occupation matrix before diagonalization:
  0.760  0.002  0.002
  0.002  0.760 -0.002
  0.002 -0.002  0.760
 Atom:    4   Spin:  2
    eigenvalues and eigenvectors of the occupation matrix:
  0.756
 -0.577  0.577  0.577
  0.762
 -0.660 -0.746  0.087
  0.762
  0.481 -0.331  0.812
    occupation matrix before diagonalization:
  0.760  0.002  0.002
  0.002  0.760 -0.002
  0.002 -0.002  0.760
atom    1   Tr[ns(na)]=   8.4727393
atom    1   Mag[ns(na)]=   1.4097664
atom    2   Tr[ns(na)]=   6.3766523
atom    2   Mag[ns(na)]=  -3.4401181
atom    3   Tr[ns(na)]=   4.5505600
atom    3   Mag[ns(na)]=  -0.0082034
atom    4   Tr[ns(na)]=   4.5505600
atom    4   Mag[ns(na)]=  -0.0082034
 --- exit write_nsg ---
 --- in v_hubbard_extended ---
Hubbard energy    0.0000
 -----------------------------

     total cpu time spent up to now is        2.1 secs

     total energy              =    -678.40586995 Ry
     estimated scf accuracy    <       1.87609467 Ry

     total magnetization       =    -2.07 Bohr mag/cell
     absolute magnetization    =     5.17 Bohr mag/cell

     iteration #  5     ecut=    35.00 Ry     beta= 0.70
     Davidson diagonalization with overlap
     ethr =  1.21E-03,  avg # of iterations =  2.0
 --- enter write_nsg ---
 Atom:    1   Spin:  1
    eigenvalues and eigenvectors of the occupation matrix:
  0.816
 -0.920  0.002  0.016  0.392  0.018
  0.816
 -0.392  0.019 -0.012 -0.920  0.008
  0.983
 -0.000  0.577  0.577 -0.000 -0.577
  0.984
 -0.019  0.079 -0.743  0.014 -0.664
  0.984
  0.014  0.812 -0.338  0.019  0.475
    occupation matrix before diagonalization:
  0.816  0.002  0.002  0.000  0.003
  0.002  0.984 -0.000  0.003  0.000
  0.002 -0.000  0.984 -0.003  0.000
  0.000  0.003 -0.003  0.816 -0.000
  0.003  0.000  0.000 -0.000  0.984
 Atom:    2   Spin:  1
    eigenvalues and eigenvectors of the occupation matrix:
  0.841
 -0.952  0.001  0.005  0.306  0.006
  0.841
  0.306 -0.006  0.004  0.952 -0.002
  0.984
  0.005 -0.230  0.794 -0.006  0.563
  0.984
  0.006  0.783 -0.192  0.005  0.591
  0.985
  0.000 -0.577 -0.577 -0.000  0.577
    occupation matrix before diagonalization:
  0.841  0.000  0.000  0.000  0.001
  0.000  0.984  0.000  0.001 -0.000
  0.000  0.000  0.984 -0.001 -0.000
  0.000  0.001 -0.001  0.841 -0.000
  0.001 -0.000 -0.000 -0.000  0.984
 Atom:    3   Spin:  1
    eigenvalues and eigenvectors of the occupation matrix:
  0.760
  0.707  0.707  0.000
  0.760
 -0.408  0.408 -0.816
  0.786
 -0.577  0.577  0.577
    occupation matrix before diagonalization:
  0.769 -0.009 -0.009
 -0.009  0.769  0.009
 -0.009  0.009  0.769
 Atom:    4   Spin:  1
    eigenvalues and eigenvectors of the occupation matrix:
  0.760
  0.673  0.737 -0.063
  0.760
 -0.462  0.352 -0.814
  0.786
 -0.577  0.577  0.577
    occupation matrix before diagonalization:
  0.769 -0.009 -0.009
 -0.009  0.769  0.009
 -0.009  0.009  0.769
 Atom:    1   Spin:  2
    eigenvalues and eigenvectors of the occupation matrix:
  0.056
  0.000  0.577  0.577 -0.000 -0.577
  0.057
  0.014  0.198 -0.785 -0.013 -0.587
  0.057
  0.013 -0.792  0.225  0.014 -0.567
  0.132
 -0.952 -0.003 -0.012  0.305 -0.015
  0.132
 -0.305 -0.015  0.011 -0.952 -0.005
    occupation matrix before diagonalization:
  0.132  0.001  0.001  0.000  0.001
  0.001  0.057 -0.000  0.001  0.000
  0.001 -0.000  0.057 -0.001  0.000
  0.000  0.001 -0.001  0.132 -0.000
  0.001  0.000  0.000 -0.000  0.057
 Atom:    2   Spin:  2
    eigenvalues and eigenvectors of the occupation matrix:
  0.992
  0.746  0.133  0.367 -0.202  0.500
  0.992
  0.202  0.501 -0.366  0.746  0.135
  0.993
  0.000  0.577  0.577  0.000 -0.577
  0.994
 -0.392 -0.234  0.625  0.499  0.390
  0.994
 -0.499  0.586 -0.090 -0.392  0.496
    occupation matrix before diagonalization:
  0.993 -0.000 -0.000  0.000 -0.000
 -0.000  0.993  0.000 -0.000 -0.000
 -0.000  0.000  0.993  0.000 -0.000
  0.000 -0.000  0.000  0.993 -0.000
 -0.000 -0.000 -0.000 -0.000  0.993
 Atom:    3   Spin:  2
    eigenvalues and eigenvectors of the occupation matrix:
  0.778
 -0.577  0.577  0.577
  0.781
  0.707  0.707  0.000
  0.781
  0.408 -0.408  0.816
    occupation matrix before diagonalization:
  0.780  0.001  0.001
  0.001  0.780 -0.001
  0.001 -0.001  0.780
 Atom:    4   Spin:  2
    eigenvalues and eigenvectors of the occupation matrix:
  0.778
 -0.577  0.577  0.577
  0.781
  0.707  0.707  0.000
  0.781
  0.408 -0.408  0.816
    occupation matrix before diagonalization:
  0.780  0.001  0.001
  0.001  0.780 -0.001
  0.001 -0.001  0.780
atom    1   Tr[ns(na)]=   5.0167961
atom    1   Mag[ns(na)]=   4.1484313
atom    2   Tr[ns(na)]=   9.5999375
atom    2   Mag[ns(na)]=  -0.3305289
atom    3   Tr[ns(na)]=   4.6458893
atom    3   Mag[ns(na)]=  -0.0323403
atom    4   Tr[ns(na)]=   4.6458893
atom    4   Mag[ns(na)]=  -0.0323403
 --- exit write_nsg ---
 --- in v_hubbard_extended ---
Hubbard energy    0.0000
 -----------------------------

     total cpu time spent up to now is        2.5 secs

     total energy              =    -678.50552095 Ry
     estimated scf accuracy    <       9.36302148 Ry

     total magnetization       =     3.86 Bohr mag/cell
     absolute magnetization    =     4.82 Bohr mag/cell

     iteration #  6     ecut=    35.00 Ry     beta= 0.70
     Davidson diagonalization with overlap
     ethr =  1.21E-03,  avg # of iterations =  2.0
 --- enter write_nsg ---
 Atom:    1   Spin:  1
    eigenvalues and eigenvectors of the occupation matrix:
  0.964
 -0.976 -0.019 -0.041  0.202 -0.060
  0.964
  0.202  0.058 -0.046  0.976  0.012
  0.988
  0.000  0.577  0.577  0.000 -0.577
  0.989
 -0.048 -0.286  0.803  0.058  0.517
  0.989
 -0.058  0.762 -0.133 -0.048  0.629
    occupation matrix before diagonalization:
  0.964 -0.001 -0.001  0.000 -0.002
 -0.001  0.989 -0.000 -0.001  0.000
 -0.001 -0.000  0.989  0.001  0.000
  0.000 -0.001  0.001  0.964 -0.000
 -0.002  0.000  0.000 -0.000  0.989
 Atom:    2   Spin:  1
    eigenvalues and eigenvectors of the occupation matrix:
  0.236
 -0.864  0.000 -0.014  0.503 -0.014
  0.236
 -0.503 -0.016  0.008 -0.864 -0.008
  0.761
 -0.000  0.577  0.577  0.000 -0.577
  0.823
  0.015  0.175 -0.778 -0.014 -0.603
  0.823
 -0.014  0.797 -0.247 -0.015  0.550
    occupation matrix before diagonalization:
  0.236 -0.005 -0.005  0.000 -0.010
 -0.005  0.802 -0.021 -0.008  0.021
 -0.005 -0.021  0.802  0.008  0.021
  0.000 -0.008  0.008  0.236 -0.000
 -0.010  0.021  0.021 -0.000  0.802
 Atom:    3   Spin:  1
    eigenvalues and eigenvectors of the occupation matrix:
  0.788
  0.669  0.740 -0.070
  0.788
 -0.468  0.346 -0.813
  0.789
 -0.577  0.577  0.577
    occupation matrix before diagonalization:
  0.789 -0.000 -0.000
 -0.000  0.789  0.000
 -0.000  0.000  0.789
 Atom:    4   Spin:  1
    eigenvalues and eigenvectors of the occupation matrix:
  0.788
  0.737  0.673  0.064
  0.788
 -0.352  0.462 -0.814
  0.789
 -0.577  0.577  0.577
    occupation matrix before diagonalization:
  0.789 -0.000 -0.000
 -0.000  0.789  0.000
 -0.000  0.000  0.789
 Atom:    1   Spin:  2
    eigenvalues and eigenvectors of the occupation matrix:
  0.195
 -0.948 -0.021 -0.071  0.296 -0.093
  0.195
 -0.296 -0.095  0.066 -0.948 -0.029
  0.520
 -0.066 -0.358  0.809  0.099  0.451
  0.520
  0.099 -0.727  0.053  0.066 -0.674
  0.556
  0.000 -0.577 -0.577 -0.000  0.577
    occupation matrix before diagonalization:
  0.200 -0.016 -0.016  0.000 -0.031
 -0.016  0.529  0.013 -0.027 -0.013
 -0.016  0.013  0.529  0.027 -0.013
  0.000 -0.027  0.027  0.200 -0.000
 -0.031 -0.013 -0.013 -0.000  0.529
 Atom:    2   Spin:  2
    eigenvalues and eigenvectors of the occupation matrix:
  0.974
 -0.911 -0.010 -0.074  0.398 -0.084
  0.974
  0.398  0.091 -0.054  0.911  0.037
  0.990
  0.000  0.577  0.577  0.000 -0.577
  0.991
 -0.069 -0.303  0.803  0.088  0.500
  0.991
 -0.088  0.753 -0.114 -0.069  0.639
    occupation matrix before diagonalization:
  0.974 -0.001 -0.001  0.000 -0.002
 -0.001  0.991 -0.000 -0.001  0.000
 -0.001 -0.000  0.991  0.001  0.000
  0.000 -0.001  0.001  0.974 -0.000
 -0.002  0.000  0.000 -0.000  0.991
 Atom:    3   Spin:  2
    eigenvalues and eigenvectors of the occupation matrix:
  0.787
  0.707  0.707  0.000
  0.787
 -0.408  0.408 -0.816
  0.792
 -0.577  0.577  0.577
    occupation matrix before diagonalization:
  0.789 -0.002 -0.002
 -0.002  0.789  0.002
 -0.002  0.002  0.789
 Atom:    4   Spin:  2
    eigenvalues and eigenvectors of the occupation matrix:
  0.787
  0.663  0.744 -0.081
  0.787
 -0.477  0.336 -0.812
  0.792
 -0.577  0.577  0.577
    occupation matrix before diagonalization:
  0.789 -0.002 -0.002
 -0.002  0.789  0.002
 -0.002  0.002  0.789
atom    1   Tr[ns(na)]=   6.8801461
atom    1   Mag[ns(na)]=   2.9076642
atom    2   Tr[ns(na)]=   7.7990906
atom    2   Mag[ns(na)]=  -2.0404425
atom    3   Tr[ns(na)]=   4.7311077
atom    3   Mag[ns(na)]=   0.0000665
atom    4   Tr[ns(na)]=   4.7311077
atom    4   Mag[ns(na)]=   0.0000665
 --- exit write_nsg ---
 --- in v_hubbard_extended ---
Hubbard energy    0.0000
 -----------------------------

     total cpu time spent up to now is        2.8 secs

     total energy              =    -678.70176084 Ry
     estimated scf accuracy    <       0.37392211 Ry

     total magnetization       =     0.88 Bohr mag/cell
     absolute magnetization    =     5.15 Bohr mag/cell

     iteration #  7     ecut=    35.00 Ry     beta= 0.70
     Davidson diagonalization with overlap
     ethr =  8.13E-04,  avg # of iterations =  1.0
 --- enter write_nsg ---
 Atom:    1   Spin:  1
    eigenvalues and eigenvectors of the occupation matrix:
  0.969
 -0.918 -0.009 -0.060  0.386 -0.069
  0.969
  0.386  0.075 -0.045  0.918  0.029
  0.989
  0.000  0.577  0.577  0.000 -0.577
  0.990
  0.064  0.219 -0.787 -0.066 -0.569
  0.990
 -0.066  0.783 -0.202 -0.064  0.581
    occupation matrix before diagonalization:
  0.969 -0.001 -0.001  0.000 -0.002
 -0.001  0.990 -0.000 -0.001  0.000
 -0.001 -0.000  0.990  0.001  0.000
  0.000 -0.001  0.001  0.969 -0.000
 -0.002  0.000  0.000 -0.000  0.990
 Atom:    2   Spin:  1
    eigenvalues and eigenvectors of the occupation matrix:
  0.224
  0.973  0.016  0.038 -0.222  0.055
  0.224
 -0.222 -0.053  0.041 -0.973 -0.012
  0.644
 -0.000  0.577  0.577  0.000 -0.577
  0.663
 -0.045 -0.258  0.798  0.051  0.540
  0.663
 -0.051  0.772 -0.162 -0.045  0.610
    occupation matrix before diagonalization:
  0.226 -0.012 -0.012  0.000 -0.024
 -0.012  0.655 -0.006 -0.021  0.006
 -0.012 -0.006  0.655  0.021  0.006
  0.000 -0.021  0.021  0.226 -0.000
 -0.024  0.006  0.006 -0.000  0.655
 Atom:    3   Spin:  1
    eigenvalues and eigenvectors of the occupation matrix:
  0.782
  0.707  0.707  0.000
  0.782
 -0.408  0.408 -0.816
  0.785
 -0.577  0.577  0.577
    occupation matrix before diagonalization:
  0.783 -0.001 -0.001
 -0.001  0.783  0.001
 -0.001  0.001  0.783
 Atom:    4   Spin:  1
    eigenvalues and eigenvectors of the occupation matrix:
  0.782
  0.659  0.747 -0.088
  0.782
 -0.482  0.330 -0.812
  0.785
 -0.577  0.577  0.577
    occupation matrix before diagonalization:
  0.783 -0.001 -0.001
 -0.001  0.783  0.001
 -0.001  0.001  0.783
 Atom:    1   Spin:  2
    eigenvalues and eigenvectors of the occupation matrix:
  0.224
 -0.936 -0.006 -0.027  0.348 -0.033
  0.224
 -0.348 -0.034  0.022 -0.936 -0.012
  0.663
 -0.000  0.577  0.577  0.000 -0.577
  0.696
 -0.027 -0.296  0.806  0.033  0.510
  0.696
 -0.033  0.760 -0.124 -0.027  0.636
    occupation matrix before diagonalization:
  0.224 -0.008 -0.008  0.000 -0.016
 -0.008  0.685 -0.011 -0.014  0.011
 -0.008 -0.011  0.685  0.014  0.011
  0.000 -0.014  0.014  0.224 -0.000
 -0.016  0.011  0.011 -0.000  0.685
 Atom:    2   Spin:  2
    eigenvalues and eigenvectors of the occupation matrix:
  0.970
 -0.947 -0.015 -0.054  0.307 -0.069
  0.970
  0.307  0.071 -0.048  0.947  0.022
  0.990
  0.000  0.577  0.577  0.000 -0.577
  0.991
  0.059  0.258 -0.797 -0.066 -0.539
  0.991
  0.066 -0.771  0.162  0.059 -0.609
    occupation matrix before diagonalization:
  0.970 -0.001 -0.001  0.000 -0.001
 -0.001  0.991 -0.000 -0.001  0.000
 -0.001 -0.000  0.991  0.001  0.000
  0.000 -0.001  0.001  0.970 -0.000
 -0.001  0.000  0.000 -0.000  0.991
 Atom:    3   Spin:  2
    eigenvalues and eigenvectors of the occupation matrix:
  0.784
  0.707  0.707  0.000
  0.784
 -0.408  0.408 -0.816
  0.786
 -0.577  0.577  0.577
    occupation matrix before diagonalization:
  0.785 -0.001 -0.001
 -0.001  0.785  0.001
 -0.001  0.001  0.785
 Atom:    4   Spin:  2
    eigenvalues and eigenvectors of the occupation matrix:
  0.784
  0.707  0.707  0.000
  0.784
 -0.408  0.408 -0.816
  0.786
 -0.577  0.577  0.577
    occupation matrix before diagonalization:
  0.785 -0.001 -0.001
 -0.001  0.785  0.001
 -0.001  0.001  0.785
atom    1   Tr[ns(na)]=   7.4105284
atom    1   Mag[ns(na)]=   2.4035431
atom    2   Tr[ns(na)]=   7.3305997
atom    2   Mag[ns(na)]=  -2.4931011
atom    3   Tr[ns(na)]=   4.7032502
atom    3   Mag[ns(na)]=  -0.0045970
atom    4   Tr[ns(na)]=   4.7032502
atom    4   Mag[ns(na)]=  -0.0045970
 --- exit write_nsg ---
 --- in v_hubbard_extended ---
Hubbard energy    0.0000
 -----------------------------

     total cpu time spent up to now is        3.1 secs

     total energy              =    -678.70773318 Ry
     estimated scf accuracy    <       0.00408351 Ry

     total magnetization       =    -0.10 Bohr mag/cell
     absolute magnetization    =     5.10 Bohr mag/cell

     iteration #  8     ecut=    35.00 Ry     beta= 0.70
     Davidson diagonalization with overlap
     ethr =  8.88E-06,  avg # of iterations =  3.4
 --- enter write_nsg ---
 Atom:    1   Spin:  1
    eigenvalues and eigenvectors of the occupation matrix:
  0.967
  0.996  0.033  0.035 -0.019  0.069
  0.967
 -0.019 -0.060  0.059 -0.996 -0.001
  0.990
  0.000  0.577  0.577  0.000 -0.577
  0.990
  0.061  0.190 -0.780 -0.058 -0.590
  0.990
 -0.058  0.791 -0.231 -0.061  0.560
    occupation matrix before diagonalization:
  0.967 -0.001 -0.001  0.000 -0.002
 -0.001  0.990 -0.000 -0.001  0.000
 -0.001 -0.000  0.990  0.001  0.000
  0.000 -0.001  0.001  0.967 -0.000
 -0.002  0.000  0.000 -0.000  0.990
 Atom:    2   Spin:  1
    eigenvalues and eigenvectors of the occupation matrix:
  0.237
  0.742 -0.008  0.036 -0.669  0.028
  0.237
  0.669  0.037 -0.012  0.742  0.026
  0.681
 -0.000  0.577  0.577  0.000 -0.577
  0.723
  0.032  0.232 -0.793 -0.034 -0.561
  0.723
 -0.034  0.782 -0.190 -0.032  0.592
    occupation matrix before diagonalization:
  0.238 -0.009 -0.009  0.000 -0.018
 -0.009  0.708 -0.014 -0.016  0.014
 -0.009 -0.014  0.708  0.016  0.014
  0.000 -0.016  0.016  0.238 -0.000
 -0.018  0.014  0.014 -0.000  0.708
 Atom:    3   Spin:  1
    eigenvalues and eigenvectors of the occupation matrix:
  0.779
  0.732  0.679  0.053
  0.779
 -0.361  0.453 -0.815
  0.780
 -0.577  0.577  0.577
    occupation matrix before diagonalization:
  0.779 -0.000 -0.000
 -0.000  0.779  0.000
 -0.000  0.000  0.779
 Atom:    4   Spin:  1
    eigenvalues and eigenvectors of the occupation matrix:
  0.779
  0.707  0.707  0.000
  0.779
 -0.408  0.408 -0.816
  0.780
 -0.577  0.577  0.577
    occupation matrix before diagonalization:
  0.779 -0.000 -0.000
 -0.000  0.779  0.000
 -0.000  0.000  0.779
 Atom:    1   Spin:  2
    eigenvalues and eigenvectors of the occupation matrix:
  0.226
 -0.888 -0.003 -0.049  0.455 -0.051
  0.226
 -0.455 -0.058  0.031 -0.888 -0.026
  0.632
  0.000  0.577  0.577  0.000 -0.577
  0.640
 -0.044 -0.296  0.805  0.055  0.509
  0.640
 -0.055  0.759 -0.123 -0.044  0.636
    occupation matrix before diagonalization:
  0.228 -0.012 -0.012  0.000 -0.024
 -0.012  0.636 -0.002 -0.021  0.002
 -0.012 -0.002  0.636  0.021  0.002
  0.000 -0.021  0.021  0.228 -0.000
 -0.024  0.002  0.002 -0.000  0.636
 Atom:    2   Spin:  2
    eigenvalues and eigenvectors of the occupation matrix:
  0.970
 -0.962 -0.020 -0.054  0.258 -0.073
  0.970
  0.258  0.073 -0.054  0.962  0.020
  0.990
  0.000  0.577  0.577  0.000 -0.577
  0.991
  0.059  0.286 -0.802 -0.072 -0.516
  0.991
  0.072 -0.761  0.133  0.059 -0.628
    occupation matrix before diagonalization:
  0.970 -0.001 -0.001  0.000 -0.002
 -0.001  0.990 -0.000 -0.001  0.000
 -0.001 -0.000  0.990  0.001  0.000
  0.000 -0.001  0.001  0.970 -0.000
 -0.002  0.000  0.000 -0.000  0.990
 Atom:    3   Spin:  2
    eigenvalues and eigenvectors of the occupation matrix:
  0.778
  0.757  0.643  0.114
  0.778
 -0.306  0.503 -0.809
  0.781
 -0.577  0.577  0.577
    occupation matrix before diagonalization:
  0.779 -0.001 -0.001
 -0.001  0.779  0.001
 -0.001  0.001  0.779
 Atom:    4   Spin:  2
    eigenvalues and eigenvectors of the occupation matrix:
  0.778
  0.707  0.707  0.000
  0.778
 -0.408  0.408 -0.816
  0.781
 -0.577  0.577  0.577
    occupation matrix before diagonalization:
  0.779 -0.001 -0.001
 -0.001  0.779  0.001
 -0.001  0.001  0.779
atom    1   Tr[ns(na)]=   7.2690155
atom    1   Mag[ns(na)]=   2.5400691
atom    2   Tr[ns(na)]=   7.5119127
atom    2   Mag[ns(na)]=  -2.3094990
atom    3   Tr[ns(na)]=   4.6765407
atom    3   Mag[ns(na)]=   0.0001969
atom    4   Tr[ns(na)]=   4.6765407
atom    4   Mag[ns(na)]=   0.0001969
 --- exit write_nsg ---
 --- in v_hubbard_extended ---
Hubbard energy    0.0000
 -----------------------------

     total cpu time spent up to now is        3.4 secs

     total energy              =    -678.70825063 Ry
     estimated scf accuracy    <       0.02481812 Ry

     total magnetization       =     0.23 Bohr mag/cell
     absolute magnetization    =     5.06 Bohr mag/cell

     iteration #  9     ecut=    35.00 Ry     beta= 0.70
     Davidson diagonalization with overlap
     ethr =  8.88E-06,  avg # of iterations =  1.0
 --- enter write_nsg ---
 Atom:    1   Spin:  1
    eigenvalues and eigenvectors of the occupation matrix:
  0.969
 -0.926 -0.010 -0.055  0.369 -0.066
  0.969
  0.369  0.070 -0.044  0.926  0.026
  0.990
  0.000  0.577  0.577  0.000 -0.577
  0.990
 -0.053 -0.307  0.806  0.068  0.499
  0.990
 -0.068  0.753 -0.111 -0.053  0.642
    occupation matrix before diagonalization:
  0.969 -0.001 -0.001  0.000 -0.002
 -0.001  0.990 -0.000 -0.001  0.000
 -0.001 -0.000  0.990  0.001  0.000
  0.000 -0.001  0.001  0.969 -0.000
 -0.002  0.000  0.000 -0.000  0.990
 Atom:    2   Spin:  1
    eigenvalues and eigenvectors of the occupation matrix:
  0.231
 -0.879 -0.001 -0.039  0.473 -0.040
  0.231
 -0.473 -0.045  0.024 -0.879 -0.022
  0.658
 -0.000  0.577  0.577  0.000 -0.577
  0.692
 -0.030 -0.368  0.814  0.047  0.446
  0.692
 -0.047  0.727 -0.044 -0.030  0.683
    occupation matrix before diagonalization:
  0.233 -0.010 -0.010  0.000 -0.021
 -0.010  0.680 -0.011 -0.018  0.011
 -0.010 -0.011  0.680  0.018  0.011
  0.000 -0.018  0.018  0.233 -0.000
 -0.021  0.011  0.011 -0.000  0.680
 Atom:    3   Spin:  1
    eigenvalues and eigenvectors of the occupation matrix:
  0.779
  0.707  0.707  0.000
  0.779
 -0.408  0.408 -0.816
  0.781
 -0.577  0.577  0.577
    occupation matrix before diagonalization:
  0.780 -0.001 -0.001
 -0.001  0.780  0.001
 -0.001  0.001  0.780
 Atom:    4   Spin:  1
    eigenvalues and eigenvectors of the occupation matrix:
  0.779
  0.729  0.683  0.046
  0.779
 -0.368  0.447 -0.815
  0.781
 -0.577  0.577  0.577
    occupation matrix before diagonalization:
  0.780 -0.001 -0.001
 -0.001  0.780  0.001
 -0.001  0.001  0.780
 Atom:    1   Spin:  2
    eigenvalues and eigenvectors of the occupation matrix:
  0.229
 -0.942 -0.009 -0.036  0.331 -0.045
  0.229
 -0.331 -0.047  0.031 -0.942 -0.016
  0.647
 -0.000  0.577  0.577  0.000 -0.577
  0.675
 -0.037 -0.292  0.805  0.045  0.513
  0.675
 -0.045  0.761 -0.127 -0.037  0.634
    occupation matrix before diagonalization:
  0.231 -0.011 -0.011  0.000 -0.021
 -0.011  0.664 -0.009 -0.018  0.009
 -0.011 -0.009  0.664  0.018  0.009
  0.000 -0.018  0.018  0.231 -0.000
 -0.021  0.009  0.009 -0.000  0.664
 Atom:    2   Spin:  2
    eigenvalues and eigenvectors of the occupation matrix:
  0.969
  0.988  0.028  0.044 -0.127  0.073
  0.969
 -0.127 -0.068  0.058 -0.988 -0.009
  0.990
  0.000  0.577  0.577  0.000 -0.577
  0.991
  0.063  0.221 -0.788 -0.064 -0.567
  0.991
  0.064 -0.783  0.200  0.063 -0.583
    occupation matrix before diagonalization:
  0.969 -0.001 -0.001  0.000 -0.002
 -0.001  0.990 -0.000 -0.001  0.000
 -0.001 -0.000  0.990  0.001  0.000
  0.000 -0.001  0.001  0.969 -0.000
 -0.002  0.000  0.000 -0.000  0.990
 Atom:    3   Spin:  2
    eigenvalues and eigenvectors of the occupation matrix:
  0.779
  0.707  0.707  0.000
  0.779
 -0.408  0.408 -0.816
  0.782
 -0.577  0.577  0.577
    occupation matrix before diagonalization:
  0.780 -0.001 -0.001
 -0.001  0.780  0.001
 -0.001  0.001  0.780
 Atom:    4   Spin:  2
    eigenvalues and eigenvectors of the occupation matrix:
  0.779
  0.666  0.742 -0.077
  0.779
 -0.473  0.340 -0.813
  0.782
 -0.577  0.577  0.577
    occupation matrix before diagonalization:
  0.780 -0.001 -0.001
 -0.001  0.780  0.001
 -0.001  0.001  0.780
atom    1   Tr[ns(na)]=   7.3629366
atom    1   Mag[ns(na)]=   2.4535970
atom    2   Tr[ns(na)]=   7.4143222
atom    2   Mag[ns(na)]=  -2.4046365
atom    3   Tr[ns(na)]=   4.6806479
atom    3   Mag[ns(na)]=   0.0001488
atom    4   Tr[ns(na)]=   4.6806479
atom    4   Mag[ns(na)]=   0.0001488
 --- exit write_nsg ---
 --- in v_hubbard_extended ---
Hubbard energy    0.0000
 -----------------------------

     total cpu time spent up to now is        3.8 secs

     total energy              =    -678.70841765 Ry
     estimated scf accuracy    <       0.00109717 Ry

     total magnetization       =     0.05 Bohr mag/cell
     absolute magnetization    =     5.06 Bohr mag/cell

     iteration # 10     ecut=    35.00 Ry     beta= 0.70
     Davidson diagonalization with overlap
     ethr =  2.39E-06,  avg # of iterations =  2.8
 --- enter write_nsg ---
 Atom:    1   Spin:  1
    eigenvalues and eigenvectors of the occupation matrix:
  0.969
 -0.923 -0.010 -0.058  0.374 -0.068
  0.969
  0.374  0.073 -0.045  0.923  0.028
  0.990
  0.000  0.577  0.577  0.000 -0.577
  0.991
 -0.054 -0.321  0.808  0.072  0.486
  0.991
 -0.072  0.747 -0.095 -0.054  0.652
    occupation matrix before diagonalization:
  0.969 -0.001 -0.001  0.000 -0.002
 -0.001  0.990 -0.000 -0.001  0.000
 -0.001 -0.000  0.990  0.001  0.000
  0.000 -0.001  0.001  0.969 -0.000
 -0.002  0.000  0.000 -0.000  0.990
 Atom:    2   Spin:  1
    eigenvalues and eigenvectors of the occupation matrix:
  0.230
 -0.997 -0.023 -0.027  0.050 -0.050
  0.230
 -0.050 -0.044  0.042 -0.997 -0.002
  0.647
 -0.000  0.577  0.577  0.000 -0.577
  0.677
  0.048  0.117 -0.757 -0.038 -0.640
  0.677
 -0.038  0.807 -0.302 -0.048  0.505
    occupation matrix before diagonalization:
  0.231 -0.011 -0.011  0.000 -0.022
 -0.011  0.666 -0.010 -0.019  0.010
 -0.011 -0.010  0.666  0.019  0.010
  0.000 -0.019  0.019  0.231 -0.000
 -0.022  0.010  0.010 -0.000  0.666
 Atom:    3   Spin:  1
    eigenvalues and eigenvectors of the occupation matrix:
  0.779
  0.645  0.756 -0.111
  0.779
 -0.500  0.309 -0.809
  0.781
 -0.577  0.577  0.577
    occupation matrix before diagonalization:
  0.780 -0.001 -0.001
 -0.001  0.780  0.001
 -0.001  0.001  0.780
 Atom:    4   Spin:  1
    eigenvalues and eigenvectors of the occupation matrix:
  0.779
  0.707  0.707  0.000
  0.779
 -0.408  0.408 -0.816
  0.781
 -0.577  0.577  0.577
    occupation matrix before diagonalization:
  0.780 -0.001 -0.001
 -0.001  0.780  0.001
 -0.001  0.001  0.780
 Atom:    1   Spin:  2
    eigenvalues and eigenvectors of the occupation matrix:
  0.231
  0.606 -0.017  0.045 -0.793  0.028
  0.231
  0.793  0.042 -0.006  0.606  0.036
  0.659
 -0.000  0.577  0.577  0.000 -0.577
  0.690
 -0.035 -0.296  0.806  0.043  0.510
  0.690
 -0.043  0.760 -0.123 -0.035  0.636
    occupation matrix before diagonalization:
  0.233 -0.010 -0.010  0.000 -0.021
 -0.010  0.679 -0.010 -0.018  0.010
 -0.010 -0.010  0.679  0.018  0.010
  0.000 -0.018  0.018  0.233 -0.000
 -0.021  0.010  0.010 -0.000  0.679
 Atom:    2   Spin:  2
    eigenvalues and eigenvectors of the occupation matrix:
  0.969
  0.909  0.007  0.058 -0.408  0.065
  0.969
  0.408  0.071 -0.042  0.909  0.029
  0.990
  0.000  0.577  0.577  0.000 -0.577
  0.991
  0.062  0.215 -0.787 -0.062 -0.572
  0.991
  0.062 -0.784  0.206  0.062 -0.579
    occupation matrix before diagonalization:
  0.969 -0.001 -0.001  0.000 -0.002
 -0.001  0.990 -0.000 -0.001  0.000
 -0.001 -0.000  0.990  0.001  0.000
  0.000 -0.001  0.001  0.969 -0.000
 -0.002  0.000  0.000 -0.000  0.990
 Atom:    3   Spin:  2
    eigenvalues and eigenvectors of the occupation matrix:
  0.779
  0.664  0.744 -0.080
  0.779
 -0.476  0.337 -0.813
  0.781
 -0.577  0.577  0.577
    occupation matrix before diagonalization:
  0.780 -0.001 -0.001
 -0.001  0.780  0.001
 -0.001  0.001  0.780
 Atom:    4   Spin:  2
    eigenvalues and eigenvectors of the occupation matrix:
  0.779
  0.747  0.658  0.089
  0.779
 -0.329  0.483 -0.812
  0.781
 -0.577  0.577  0.577
    occupation matrix before diagonalization:
  0.780 -0.001 -0.001
 -0.001  0.780  0.001
 -0.001  0.001  0.780
atom    1   Tr[ns(na)]=   7.4103067
atom    1   Mag[ns(na)]=   2.4080958
atom    2   Tr[ns(na)]=   7.3690050
atom    2   Mag[ns(na)]=  -2.4483078
atom    3   Tr[ns(na)]=   4.6794122
atom    3   Mag[ns(na)]=  -0.0004302
atom    4   Tr[ns(na)]=   4.6794122
atom    4   Mag[ns(na)]=  -0.0004302
 --- exit write_nsg ---
 --- in v_hubbard_extended ---
Hubbard energy    0.0000
 -----------------------------

     total cpu time spent up to now is        4.1 secs

     total energy              =    -678.70844992 Ry
     estimated scf accuracy    <       0.00068009 Ry

     total magnetization       =    -0.04 Bohr mag/cell
     absolute magnetization    =     5.06 Bohr mag/cell

     iteration # 11     ecut=    35.00 Ry     beta= 0.70
     Davidson diagonalization with overlap
     ethr =  1.48E-06,  avg # of iterations =  1.0
 --- enter write_nsg ---
 Atom:    1   Spin:  1
    eigenvalues and eigenvectors of the occupation matrix:
  0.969
 -0.935 -0.012 -0.056  0.344 -0.068
  0.969
  0.344  0.071 -0.046  0.935  0.025
  0.990
  0.000  0.577  0.577  0.000 -0.577
  0.991
  0.062  0.222 -0.789 -0.064 -0.566
  0.991
 -0.064  0.782 -0.199 -0.062  0.584
    occupation matrix before diagonalization:
  0.969 -0.001 -0.001  0.000 -0.002
 -0.001  0.990 -0.000 -0.001  0.000
 -0.001 -0.000  0.990  0.001  0.000
  0.000 -0.001  0.001  0.969 -0.000
 -0.002  0.000  0.000 -0.000  0.990
 Atom:    2   Spin:  1
    eigenvalues and eigenvectors of the occupation matrix:
  0.231
 -0.978 -0.015 -0.032  0.199 -0.047
  0.231
 -0.199 -0.046  0.036 -0.978 -0.010
  0.651
 -0.000  0.577  0.577  0.000 -0.577
  0.683
 -0.042 -0.201  0.784  0.041  0.584
  0.683
 -0.041  0.790 -0.221 -0.042  0.569
    occupation matrix before diagonalization:
  0.232 -0.011 -0.011  0.000 -0.022
 -0.011  0.671 -0.010 -0.019  0.010
 -0.011 -0.010  0.671  0.019  0.010
  0.000 -0.019  0.019  0.232 -0.000
 -0.022  0.010  0.010 -0.000  0.671
 Atom:    3   Spin:  1
    eigenvalues and eigenvectors of the occupation matrix:
  0.779
  0.707  0.707  0.000
  0.779
 -0.408  0.408 -0.816
  0.781
 -0.577  0.577  0.577
    occupation matrix before diagonalization:
  0.780 -0.001 -0.001
 -0.001  0.780  0.001
 -0.001  0.001  0.780
 Atom:    4   Spin:  1
    eigenvalues and eigenvectors of the occupation matrix:
  0.779
  0.707  0.707  0.000
  0.779
 -0.408  0.408 -0.816
  0.781
 -0.577  0.577  0.577
    occupation matrix before diagonalization:
  0.780 -0.001 -0.001
 -0.001  0.780  0.001
 -0.001  0.001  0.780
 Atom:    1   Spin:  2
    eigenvalues and eigenvectors of the occupation matrix:
  0.231
  0.951  0.010  0.034 -0.304  0.044
  0.231
  0.304  0.045 -0.031  0.951  0.014
  0.654
 -0.000  0.577  0.577  0.000 -0.577
  0.685
  0.045  0.105 -0.753 -0.035 -0.648
  0.685
 -0.035  0.808 -0.313 -0.045  0.495
    occupation matrix before diagonalization:
  0.232 -0.011 -0.011  0.000 -0.021
 -0.011  0.674 -0.010 -0.018  0.010
 -0.011 -0.010  0.674  0.018  0.010
  0.000 -0.018  0.018  0.232 -0.000
 -0.021  0.010  0.010 -0.000  0.674
 Atom:    2   Spin:  2
    eigenvalues and eigenvectors of the occupation matrix:
  0.969
 -0.917 -0.009 -0.058  0.389 -0.066
  0.969
  0.389  0.072 -0.043  0.917  0.028
  0.990
  0.000  0.577  0.577  0.000 -0.577
  0.991
 -0.052 -0.326  0.808  0.071  0.482
  0.991
 -0.071  0.745 -0.090 -0.052  0.655
    occupation matrix before diagonalization:
  0.969 -0.001 -0.001  0.000 -0.002
 -0.001  0.990 -0.000 -0.001  0.000
 -0.001 -0.000  0.990  0.001  0.000
  0.000 -0.001  0.001  0.969 -0.000
 -0.002  0.000  0.000 -0.000  0.990
 Atom:    3   Spin:  2
    eigenvalues and eigenvectors of the occupation matrix:
  0.779
  0.707  0.707  0.000
  0.779
 -0.408  0.408 -0.816
  0.781
 -0.577  0.577  0.577
    occupation matrix before diagonalization:
  0.780 -0.001 -0.001
 -0.001  0.780  0.001
 -0.001  0.001  0.780
 Atom:    4   Spin:  2
    eigenvalues and eigenvectors of the occupation matrix:
  0.779
  0.707  0.707  0.000
  0.779
 -0.408  0.408 -0.816
  0.781
 -0.577  0.577  0.577
    occupation matrix before diagonalization:
  0.780 -0.001 -0.001
 -0.001  0.780  0.001
 -0.001  0.001  0.780
atom    1   Tr[ns(na)]=   7.3942759
atom    1   Mag[ns(na)]=   2.4234126
atom    2   Tr[ns(na)]=   7.3859339
atom    2   Mag[ns(na)]=  -2.4315850
atom    3   Tr[ns(na)]=   4.6789579
atom    3   Mag[ns(na)]=  -0.0001348
atom    4   Tr[ns(na)]=   4.6789579
atom    4   Mag[ns(na)]=  -0.0001348
 --- exit write_nsg ---
 --- in v_hubbard_extended ---
Hubbard energy    0.0000
 -----------------------------

     total cpu time spent up to now is        4.4 secs

     total energy              =    -678.70845488 Ry
     estimated scf accuracy    <       0.00002873 Ry

     total magnetization       =    -0.01 Bohr mag/cell
     absolute magnetization    =     5.06 Bohr mag/cell

     iteration # 12     ecut=    35.00 Ry     beta= 0.70
     Davidson diagonalization with overlap
     ethr =  6.25E-08,  avg # of iterations =  1.1
 --- enter write_nsg ---
 Atom:    1   Spin:  1
    eigenvalues and eigenvectors of the occupation matrix:
  0.969
  0.880  0.003  0.061 -0.467  0.064
  0.969
  0.467  0.072 -0.038  0.880  0.034
  0.990
  0.000  0.577  0.577  0.000 -0.577
  0.991
 -0.060 -0.247  0.795  0.065  0.548
  0.991
 -0.065  0.775 -0.174 -0.060  0.601
    occupation matrix before diagonalization:
  0.969 -0.001 -0.001  0.000 -0.002
 -0.001  0.990 -0.000 -0.001  0.000
 -0.001 -0.000  0.990  0.001  0.000
  0.000 -0.001  0.001  0.969 -0.000
 -0.002  0.000  0.000 -0.000  0.990
 Atom:    2   Spin:  1
    eigenvalues and eigenvectors of the occupation matrix:
  0.231
 -0.967 -0.013 -0.033  0.249 -0.046
  0.231
 -0.249 -0.046  0.034 -0.967 -0.012
  0.652
 -0.000  0.577  0.577  0.000 -0.577
  0.684
  0.047  0.088 -0.746 -0.034 -0.658
  0.684
 -0.034  0.810 -0.329 -0.047  0.482
    occupation matrix before diagonalization:
  0.232 -0.011 -0.011  0.000 -0.022
 -0.011  0.672 -0.010 -0.019  0.010
 -0.011 -0.010  0.672  0.019  0.010
  0.000 -0.019  0.019  0.232 -0.000
 -0.022  0.010  0.010 -0.000  0.672
 Atom:    3   Spin:  1
    eigenvalues and eigenvectors of the occupation matrix:
  0.779
  0.647  0.755 -0.107
  0.779
 -0.497  0.312 -0.809
  0.781
 -0.577  0.577  0.577
    occupation matrix before diagonalization:
  0.780 -0.001 -0.001
 -0.001  0.780  0.001
 -0.001  0.001  0.780
 Atom:    4   Spin:  1
    eigenvalues and eigenvectors of the occupation matrix:
  0.779
  0.707  0.707  0.000
  0.779
 -0.408  0.408 -0.816
  0.781
 -0.577  0.577  0.577
    occupation matrix before diagonalization:
  0.780 -0.001 -0.001
 -0.001  0.780  0.001
 -0.001  0.001  0.780
 Atom:    1   Spin:  2
    eigenvalues and eigenvectors of the occupation matrix:
  0.231
 -0.922 -0.006 -0.038  0.384 -0.044
  0.231
 -0.384 -0.047  0.029 -0.922 -0.018
  0.652
 -0.000  0.577  0.577  0.000 -0.577
  0.684
 -0.040 -0.222  0.790  0.042  0.568
  0.684
 -0.042  0.784 -0.200 -0.040  0.584
    occupation matrix before diagonalization:
  0.232 -0.011 -0.011  0.000 -0.021
 -0.011  0.672 -0.010 -0.019  0.010
 -0.011 -0.010  0.672  0.019  0.010
  0.000 -0.019  0.019  0.232 -0.000
 -0.021  0.010  0.010 -0.000  0.672
 Atom:    2   Spin:  2
    eigenvalues and eigenvectors of the occupation matrix:
  0.969
 -0.936 -0.013 -0.055  0.340 -0.068
  0.969
  0.340  0.071 -0.047  0.936  0.025
  0.990
  0.000  0.577  0.577  0.000 -0.577
  0.991
  0.062  0.217 -0.787 -0.063 -0.570
  0.991
  0.063 -0.784  0.204  0.062 -0.580
    occupation matrix before diagonalization:
  0.969 -0.001 -0.001  0.000 -0.002
 -0.001  0.990 -0.000 -0.001  0.000
 -0.001 -0.000  0.990  0.001  0.000
  0.000 -0.001  0.001  0.969 -0.000
 -0.002  0.000  0.000 -0.000  0.990
 Atom:    3   Spin:  2
    eigenvalues and eigenvectors of the occupation matrix:
  0.779
  0.657  0.748 -0.091
  0.779
 -0.485  0.327 -0.811
  0.781
 -0.577  0.577  0.577
    occupation matrix before diagonalization:
  0.780 -0.001 -0.001
 -0.001  0.780  0.001
 -0.001  0.001  0.780
 Atom:    4   Spin:  2
    eigenvalues and eigenvectors of the occupation matrix:
  0.779
  0.707  0.707  0.000
  0.779
 -0.408  0.408 -0.816
  0.781
 -0.577  0.577  0.577
    occupation matrix before diagonalization:
  0.780 -0.001 -0.001
 -0.001  0.780  0.001
 -0.001  0.001  0.780
atom    1   Tr[ns(na)]=   7.3900062
atom    1   Mag[ns(na)]=   2.4274503
atom    2   Tr[ns(na)]=   7.3901546
atom    2   Mag[ns(na)]=  -2.4272779
atom    3   Tr[ns(na)]=   4.6790340
atom    3   Mag[ns(na)]=  -0.0000097
atom    4   Tr[ns(na)]=   4.6790340
atom    4   Mag[ns(na)]=  -0.0000097
 --- exit write_nsg ---
 --- in v_hubbard_extended ---
Hubbard energy    0.0000
 -----------------------------

     total cpu time spent up to now is        4.7 secs

     total energy              =    -678.70845538 Ry
     estimated scf accuracy    <       0.00000005 Ry

     total magnetization       =     0.00 Bohr mag/cell
     absolute magnetization    =     5.06 Bohr mag/cell

     iteration # 13     ecut=    35.00 Ry     beta= 0.70
     Davidson diagonalization with overlap
     ethr =  1.13E-10,  avg # of iterations =  3.2
 --- enter write_nsg ---
 Atom:    1   Spin:  1
    eigenvalues and eigenvectors of the occupation matrix:
  0.969
 -0.936 -0.013 -0.055  0.340 -0.068
  0.969
  0.340  0.071 -0.046  0.936  0.025
  0.990
  0.000  0.577  0.577  0.000 -0.577
  0.991
  0.063  0.211 -0.786 -0.063 -0.574
  0.991
 -0.063  0.785 -0.210 -0.063  0.576
    occupation matrix before diagonalization:
  0.969 -0.001 -0.001  0.000 -0.002
 -0.001  0.990 -0.000 -0.001  0.000
 -0.001 -0.000  0.990  0.001  0.000
  0.000 -0.001  0.001  0.969 -0.000
 -0.002  0.000  0.000 -0.000  0.990
 Atom:    2   Spin:  1
    eigenvalues and eigenvectors of the occupation matrix:
  0.231
 -0.913 -0.005 -0.038  0.404 -0.043
  0.231
 -0.404 -0.047  0.028 -0.913 -0.019
  0.652
 -0.000  0.577  0.577  0.000 -0.577
  0.684
  0.040  0.237 -0.794 -0.043 -0.557
  0.684
 -0.043  0.780 -0.184 -0.040  0.595
    occupation matrix before diagonalization:
  0.232 -0.011 -0.011  0.000 -0.022
 -0.011  0.672 -0.010 -0.019  0.010
 -0.011 -0.010  0.672  0.019  0.010
  0.000 -0.019  0.019  0.232 -0.000
 -0.022  0.010  0.010 -0.000  0.672
 Atom:    3   Spin:  1
    eigenvalues and eigenvectors of the occupation matrix:
  0.779
  0.749  0.656  0.093
  0.779
 -0.325  0.486 -0.811
  0.781
 -0.577  0.577  0.577
    occupation matrix before diagonalization:
  0.780 -0.001 -0.001
 -0.001  0.780  0.001
 -0.001  0.001  0.780
 Atom:    4   Spin:  1
    eigenvalues and eigenvectors of the occupation matrix:
  0.779
  0.742  0.666  0.077
  0.779
 -0.340  0.473 -0.813
  0.781
 -0.577  0.577  0.577
    occupation matrix before diagonalization:
  0.780 -0.001 -0.001
 -0.001  0.780  0.001
 -0.001  0.001  0.780
 Atom:    1   Spin:  2
    eigenvalues and eigenvectors of the occupation matrix:
  0.231
 -0.994 -0.020 -0.027  0.088 -0.047
  0.231
 -0.088 -0.043  0.039 -0.994 -0.004
  0.652
 -0.000  0.577  0.577  0.000 -0.577
  0.684
  0.043  0.166 -0.774 -0.039 -0.608
  0.684
 -0.039  0.798 -0.255 -0.043  0.543
    occupation matrix before diagonalization:
  0.232 -0.011 -0.011  0.000 -0.021
 -0.011  0.672 -0.010 -0.019  0.010
 -0.011 -0.010  0.672  0.019  0.010
  0.000 -0.019  0.019  0.232 -0.000
 -0.021  0.010  0.010 -0.000  0.672
 Atom:    2   Spin:  2
    eigenvalues and eigenvectors of the occupation matrix:
  0.969
  0.889  0.004  0.061 -0.449  0.065
  0.969
  0.449  0.072 -0.040  0.889  0.033
  0.990
  0.000  0.577  0.577  0.000 -0.577
  0.991
  0.062  0.224 -0.789 -0.064 -0.565
  0.991
 -0.064  0.782 -0.197 -0.062  0.585
    occupation matrix before diagonalization:
  0.969 -0.001 -0.001  0.000 -0.002
 -0.001  0.990 -0.000 -0.001  0.000
 -0.001 -0.000  0.990  0.001  0.000
  0.000 -0.001  0.001  0.969 -0.000
 -0.002  0.000  0.000 -0.000  0.990
 Atom:    3   Spin:  2
    eigenvalues and eigenvectors of the occupation matrix:
  0.779
  0.707  0.707  0.000
  0.779
 -0.408  0.408 -0.816
  0.781
 -0.577  0.577  0.577
    occupation matrix before diagonalization:
  0.780 -0.001 -0.001
 -0.001  0.780  0.001
 -0.001  0.001  0.780
 Atom:    4   Spin:  2
    eigenvalues and eigenvectors of the occupation matrix:
  0.779
  0.739  0.671  0.068
  0.779
 -0.348  0.465 -0.814
  0.781
 -0.577  0.577  0.577
    occupation matrix before diagonalization:
  0.780 -0.001 -0.001
 -0.001  0.780  0.001
 -0.001  0.001  0.780
atom    1   Tr[ns(na)]=   7.3896346
atom    1   Mag[ns(na)]=   2.4277721
atom    2   Tr[ns(na)]=   7.3905703
atom    2   Mag[ns(na)]=  -2.4268718
atom    3   Tr[ns(na)]=   4.6789901
atom    3   Mag[ns(na)]=  -0.0000008
atom    4   Tr[ns(na)]=   4.6789901
atom    4   Mag[ns(na)]=  -0.0000008
 --- exit write_nsg ---
 --- in v_hubbard_extended ---
Hubbard energy    0.0000
 -----------------------------

     total cpu time spent up to now is        5.1 secs

     total energy              =    -678.70845539 Ry
     estimated scf accuracy    <       0.00000037 Ry

     total magnetization       =     0.00 Bohr mag/cell
     absolute magnetization    =     5.06 Bohr mag/cell

     iteration # 14     ecut=    35.00 Ry     beta= 0.70
     Davidson diagonalization with overlap
     ethr =  1.13E-10,  avg # of iterations =  1.1
 --- enter write_nsg ---
 Atom:    1   Spin:  1
    eigenvalues and eigenvectors of the occupation matrix:
  0.969
  0.916  0.009  0.058 -0.391  0.067
  0.969
  0.391  0.072 -0.043  0.916  0.028
  0.990
  0.000  0.577  0.577  0.000 -0.577
  0.991
  0.064  0.195 -0.781 -0.061 -0.587
  0.991
  0.061 -0.790  0.226  0.064 -0.563
    occupation matrix before diagonalization:
  0.969 -0.001 -0.001  0.000 -0.002
 -0.001  0.990 -0.000 -0.001  0.000
 -0.001 -0.000  0.990  0.001  0.000
  0.000 -0.001  0.001  0.969 -0.000
 -0.002  0.000  0.000 -0.000  0.990
 Atom:    2   Spin:  1
    eigenvalues and eigenvectors of the occupation matrix:
  0.231
 -0.909 -0.005 -0.039  0.412 -0.043
  0.231
 -0.412 -0.047  0.028 -0.909 -0.020
  0.652
 -0.000  0.577  0.577  0.000 -0.577
  0.684
  0.040  0.228 -0.792 -0.042 -0.563
  0.684
 -0.042  0.782 -0.194 -0.040  0.589
    occupation matrix before diagonalization:
  0.232 -0.011 -0.011  0.000 -0.022
 -0.011  0.672 -0.010 -0.019  0.010
 -0.011 -0.010  0.672  0.019  0.010
  0.000 -0.019  0.019  0.232 -0.000
 -0.022  0.010  0.010 -0.000  0.672
 Atom:    3   Spin:  1
    eigenvalues and eigenvectors of the occupation matrix:
  0.779
  0.707  0.707  0.000
  0.779
 -0.408  0.408 -0.816
  0.781
 -0.577  0.577  0.577
    occupation matrix before diagonalization:
  0.780 -0.001 -0.001
 -0.001  0.780  0.001
 -0.001  0.001  0.780
 Atom:    4   Spin:  1
    eigenvalues and eigenvectors of the occupation matrix:
  0.779
  0.707  0.707  0.000
  0.779
 -0.408  0.408 -0.816
  0.781
 -0.577  0.577  0.577
    occupation matrix before diagonalization:
  0.780 -0.001 -0.001
 -0.001  0.780  0.001
 -0.001  0.001  0.780
 Atom:    1   Spin:  2
    eigenvalues and eigenvectors of the occupation matrix:
  0.231
  0.855 -0.001  0.042 -0.516  0.041
  0.231
  0.516  0.047 -0.023  0.855  0.025
  0.652
 -0.000  0.577  0.577  0.000 -0.577
  0.684
  0.043  0.182 -0.779 -0.040 -0.597
  0.684
 -0.040  0.794 -0.239 -0.043  0.555
    occupation matrix before diagonalization:
  0.232 -0.011 -0.011  0.000 -0.021
 -0.011  0.672 -0.010 -0.019  0.010
 -0.011 -0.010  0.672  0.019  0.010
  0.000 -0.019  0.019  0.232 -0.000
 -0.021  0.010  0.010 -0.000  0.672
 Atom:    2   Spin:  2
    eigenvalues and eigenvectors of the occupation matrix:
  0.969
  0.990  0.029  0.043 -0.107  0.072
  0.969
  0.107  0.066 -0.058  0.990  0.008
  0.990
  0.000  0.577  0.577  0.000 -0.577
  0.991
  0.073  0.071 -0.737 -0.051 -0.666
  0.991
  0.051 -0.810  0.344  0.073 -0.467
    occupation matrix before diagonalization:
  0.969 -0.001 -0.001  0.000 -0.002
 -0.001  0.990 -0.000 -0.001  0.000
 -0.001 -0.000  0.990  0.001  0.000
  0.000 -0.001  0.001  0.969 -0.000
 -0.002  0.000  0.000 -0.000  0.990
 Atom:    3   Spin:  2
    eigenvalues and eigenvectors of the occupation matrix:
  0.779
  0.707  0.707  0.000
  0.779
 -0.408  0.408 -0.816
  0.781
 -0.577  0.577  0.577
    occupation matrix before diagonalization:
  0.780 -0.001 -0.001
 -0.001  0.780  0.001
 -0.001  0.001  0.780
 Atom:    4   Spin:  2
    eigenvalues and eigenvectors of the occupation matrix:
  0.779
  0.707  0.707  0.000
  0.779
 -0.408  0.408 -0.816
  0.781
 -0.577  0.577  0.577
    occupation matrix before diagonalization:
  0.780 -0.001 -0.001
 -0.001  0.780  0.001
 -0.001  0.001  0.780
atom    1   Tr[ns(na)]=   7.3903495
atom    1   Mag[ns(na)]=   2.4270797
atom    2   Tr[ns(na)]=   7.3898559
atom    2   Mag[ns(na)]=  -2.4275714
atom    3   Tr[ns(na)]=   4.6789829
atom    3   Mag[ns(na)]=  -0.0000113
atom    4   Tr[ns(na)]=   4.6789829
atom    4   Mag[ns(na)]=  -0.0000113
 --- exit write_nsg ---
 --- in v_hubbard_extended ---
Hubbard energy    0.0000
 -----------------------------

     total cpu time spent up to now is        5.4 secs

     total energy              =    -678.70845540 Ry
     estimated scf accuracy    <       0.00000010 Ry

     total magnetization       =    -0.00 Bohr mag/cell
     absolute magnetization    =     5.06 Bohr mag/cell

     iteration # 15     ecut=    35.00 Ry     beta= 0.70
     Davidson diagonalization with overlap
     ethr =  1.13E-10,  avg # of iterations =  1.0
 --- enter write_nsg ---
 Atom:    1   Spin:  1
    eigenvalues and eigenvectors of the occupation matrix:
  0.969
 -0.954 -0.017 -0.053  0.286 -0.069
  0.969
  0.286  0.070 -0.050  0.954  0.021
  0.990
  0.000  0.577  0.577  0.000 -0.577
  0.991
  0.064  0.190 -0.780 -0.061 -0.590
  0.991
 -0.061  0.791 -0.231 -0.064  0.560
    occupation matrix before diagonalization:
  0.969 -0.001 -0.001  0.000 -0.002
 -0.001  0.990 -0.000 -0.001  0.000
 -0.001 -0.000  0.990  0.001  0.000
  0.000 -0.001  0.001  0.969 -0.000
 -0.002  0.000  0.000 -0.000  0.990
 Atom:    2   Spin:  1
    eigenvalues and eigenvectors of the occupation matrix:
  0.231
 -0.899 -0.004 -0.039  0.433 -0.043
  0.231
 -0.433 -0.047  0.027 -0.899 -0.021
  0.652
 -0.000  0.577  0.577  0.000 -0.577
  0.684
  0.045  0.139 -0.765 -0.037 -0.626
  0.684
 -0.037  0.803 -0.282 -0.045  0.522
    occupation matrix before diagonalization:
  0.232 -0.011 -0.011  0.000 -0.022
 -0.011  0.672 -0.010 -0.019  0.010
 -0.011 -0.010  0.672  0.019  0.010
  0.000 -0.019  0.019  0.232 -0.000
 -0.022  0.010  0.010 -0.000  0.672
 Atom:    3   Spin:  1
    eigenvalues and eigenvectors of the occupation matrix:
  0.779
  0.707  0.707  0.000
  0.779
 -0.408  0.408 -0.816
  0.781
 -0.577  0.577  0.577
    occupation matrix before diagonalization:
  0.780 -0.001 -0.001
 -0.001  0.780  0.001
 -0.001  0.001  0.780
 Atom:    4   Spin:  1
    eigenvalues and eigenvectors of the occupation matrix:
  0.779
  0.730  0.682  0.048
  0.779
 -0.366  0.449 -0.815
  0.781
 -0.577  0.577  0.577
    occupation matrix before diagonalization:
  0.780 -0.001 -0.001
 -0.001  0.780  0.001
 -0.001  0.001  0.780
 Atom:    1   Spin:  2
    eigenvalues and eigenvectors of the occupation matrix:
  0.231
  0.931  0.007  0.037 -0.360  0.044
  0.231
  0.360  0.047 -0.030  0.931  0.017
  0.652
 -0.000  0.577  0.577  0.000 -0.577
  0.684
  0.040  0.235 -0.793 -0.042 -0.559
  0.684
 -0.042  0.781 -0.187 -0.040  0.594
    occupation matrix before diagonalization:
  0.232 -0.011 -0.011  0.000 -0.022
 -0.011  0.672 -0.010 -0.019  0.010
 -0.011 -0.010  0.672  0.019  0.010
  0.000 -0.019  0.019  0.232 -0.000
 -0.022  0.010  0.010 -0.000  0.672
 Atom:    2   Spin:  2
    eigenvalues and eigenvectors of the occupation matrix:
  0.969
 -0.987 -0.027 -0.044  0.136 -0.072
  0.969
  0.136  0.067 -0.057  0.987  0.010
  0.990
  0.000  0.577  0.577  0.000 -0.577
  0.991
  0.066  0.162 -0.771 -0.059 -0.609
  0.991
 -0.059  0.797 -0.258 -0.066  0.539
    occupation matrix before diagonalization:
  0.969 -0.001 -0.001  0.000 -0.002
 -0.001  0.990 -0.000 -0.001  0.000
 -0.001 -0.000  0.990  0.001  0.000
  0.000 -0.001  0.001  0.969 -0.000
 -0.002  0.000  0.000 -0.000  0.990
 Atom:    3   Spin:  2
    eigenvalues and eigenvectors of the occupation matrix:
  0.779
  0.707  0.707  0.000
  0.779
 -0.408  0.408 -0.816
  0.781
 -0.577  0.577  0.577
    occupation matrix before diagonalization:
  0.780 -0.001 -0.001
 -0.001  0.780  0.001
 -0.001  0.001  0.780
 Atom:    4   Spin:  2
    eigenvalues and eigenvectors of the occupation matrix:
  0.779
  0.707  0.707  0.000
  0.779
 -0.408  0.408 -0.816
  0.781
 -0.577  0.577  0.577
    occupation matrix before diagonalization:
  0.780 -0.001 -0.001
 -0.001  0.780  0.001
 -0.001  0.001  0.780
atom    1   Tr[ns(na)]=   7.3901084
atom    1   Mag[ns(na)]=   2.4273167
atom    2   Tr[ns(na)]=   7.3901038
atom    2   Mag[ns(na)]=  -2.4273278
atom    3   Tr[ns(na)]=   4.6789803
atom    3   Mag[ns(na)]=  -0.0000025
atom    4   Tr[ns(na)]=   4.6789803
atom    4   Mag[ns(na)]=  -0.0000025
 --- exit write_nsg ---
 --- in v_hubbard_extended ---
Hubbard energy    0.0000
 -----------------------------

     total cpu time spent up to now is        5.7 secs

     total energy              =    -678.70845541 Ry
     estimated scf accuracy    <          6.8E-10 Ry

     total magnetization       =    -0.00 Bohr mag/cell
[...]
  0.232 -0.011 -0.011  0.000 -0.022
 -0.011  0.672 -0.010 -0.019  0.010
 -0.011 -0.010  0.672  0.019  0.010
  0.000 -0.019  0.019  0.232 -0.000
 -0.022  0.010  0.010 -0.000  0.672
 Atom:    3   Spin:  1
    eigenvalues and eigenvectors of the occupation matrix:
  0.779
  0.707  0.707  0.000
  0.779
 -0.408  0.408 -0.816
  0.781
 -0.577  0.577  0.577
    occupation matrix before diagonalization:
  0.780 -0.001 -0.001
 -0.001  0.780  0.001
 -0.001  0.001  0.780
 Atom:    4   Spin:  1
    eigenvalues and eigenvectors of the occupation matrix:
  0.779
  0.651  0.752 -0.100
  0.779
 -0.492  0.318 -0.810
  0.781
 -0.577  0.577  0.577
    occupation matrix before diagonalization:
  0.780 -0.001 -0.001
 -0.001  0.780  0.001
 -0.001  0.001  0.780
 Atom:    1   Spin:  2
    eigenvalues and eigenvectors of the occupation matrix:
  0.231
 -0.962 -0.012 -0.034  0.267 -0.046
  0.231
 -0.267 -0.046  0.033 -0.962 -0.013
  0.652
 -0.000  0.577  0.577  0.000 -0.577
  0.684
 -0.039 -0.249  0.797  0.043  0.548
  0.684
 -0.043  0.776 -0.173 -0.039  0.604
    occupation matrix before diagonalization:
  0.232 -0.011 -0.011  0.000 -0.022
 -0.011  0.672 -0.010 -0.019  0.010
 -0.011 -0.010  0.672  0.019  0.010
  0.000 -0.019  0.019  0.232 -0.000
 -0.022  0.010  0.010 -0.000  0.672
 Atom:    2   Spin:  2
    eigenvalues and eigenvectors of the occupation matrix:
  0.969
  0.939  0.013  0.055 -0.334  0.068
  0.969
  0.334  0.071 -0.047  0.939  0.024
  0.990
  0.000  0.577  0.577  0.000 -0.577
  0.991
  0.060  0.245 -0.794 -0.065 -0.549
  0.991
  0.065 -0.776  0.176  0.060 -0.600
    occupation matrix before diagonalization:
  0.969 -0.001 -0.001  0.000 -0.002
 -0.001  0.990 -0.000 -0.001  0.000
 -0.001 -0.000  0.990  0.001  0.000
  0.000 -0.001  0.001  0.969 -0.000
 -0.002  0.000  0.000 -0.000  0.990
 Atom:    3   Spin:  2
    eigenvalues and eigenvectors of the occupation matrix:
  0.779
  0.663  0.744 -0.081
  0.779
 -0.476  0.336 -0.812
  0.781
 -0.577  0.577  0.577
    occupation matrix before diagonalization:
  0.780 -0.001 -0.001
 -0.001  0.780  0.001
 -0.001  0.001  0.780
 Atom:    4   Spin:  2
    eigenvalues and eigenvectors of the occupation matrix:
  0.779
  0.658  0.748 -0.089
  0.779
 -0.483  0.328 -0.812
  0.781
 -0.577  0.577  0.577
    occupation matrix before diagonalization:
  0.780 -0.001 -0.001
 -0.001  0.780  0.001
 -0.001  0.001  0.780
atom    1   Tr[ns(na)]=   7.3900638
atom    1   Mag[ns(na)]=   2.4273648
atom    2   Tr[ns(na)]=   7.3901396
atom    2   Mag[ns(na)]=  -2.4272930
atom    3   Tr[ns(na)]=   4.6789840
atom    3   Mag[ns(na)]=   0.0000002
atom    4   Tr[ns(na)]=   4.6789840
atom    4   Mag[ns(na)]=   0.0000002
 --- exit write_nsg ---
 --- in v_hubbard_extended ---
Hubbard energy    0.0000
 -----------------------------

     total cpu time spent up to now is        6.1 secs

     total energy              =    -678.70845541 Ry
     estimated scf accuracy    <          2.4E-09 Ry

     total magnetization       =     0.00 Bohr mag/cell
     absolute magnetization    =     5.06 Bohr mag/cell

     iteration # 17     ecut=    35.00 Ry     beta= 0.70
     Davidson diagonalization with overlap
     ethr =  1.48E-12,  avg # of iterations =  1.1
 --- enter write_nsg ---
 Atom:    1   Spin:  1
    eigenvalues and eigenvectors of the occupation matrix:
  0.969
  0.908  0.007  0.059 -0.410  0.066
  0.969
  0.410  0.072 -0.042  0.908  0.030
  0.990
  0.000  0.577  0.577  0.000 -0.577
  0.991
  0.064  0.194 -0.781 -0.061 -0.587
  0.991
 -0.061  0.790 -0.226 -0.064  0.563
    occupation matrix before diagonalization:
  0.969 -0.001 -0.001  0.000 -0.002
 -0.001  0.990 -0.000 -0.001  0.000
 -0.001 -0.000  0.990  0.001  0.000
  0.000 -0.001  0.001  0.969 -0.000
 -0.002  0.000  0.000 -0.000  0.990
 Atom:    2   Spin:  1
    eigenvalues and eigenvectors of the occupation matrix:
  0.231
  0.624 -0.017  0.047 -0.779  0.030
  0.231
  0.779  0.044 -0.007  0.624  0.037
  0.652
 -0.000  0.577  0.577  0.000 -0.577
  0.684
  0.043  0.185 -0.780 -0.040 -0.595
  0.684
 -0.040  0.794 -0.236 -0.043  0.557
    occupation matrix before diagonalization:
  0.232 -0.011 -0.011  0.000 -0.022
 -0.011  0.672 -0.010 -0.019  0.010
 -0.011 -0.010  0.672  0.019  0.010
  0.000 -0.019  0.019  0.232 -0.000
 -0.022  0.010  0.010 -0.000  0.672
 Atom:    3   Spin:  1
    eigenvalues and eigenvectors of the occupation matrix:
  0.779
  0.707  0.707  0.000
  0.779
 -0.408  0.408 -0.816
  0.781
 -0.577  0.577  0.577
    occupation matrix before diagonalization:
  0.780 -0.001 -0.001
 -0.001  0.780  0.001
 -0.001  0.001  0.780
 Atom:    4   Spin:  1
    eigenvalues and eigenvectors of the occupation matrix:
  0.779
  0.707  0.707  0.000
  0.779
 -0.408  0.408 -0.816
  0.781
 -0.577  0.577  0.577
    occupation matrix before diagonalization:
  0.780 -0.001 -0.001
 -0.001  0.780  0.001
 -0.001  0.001  0.780
 Atom:    1   Spin:  2
    eigenvalues and eigenvectors of the occupation matrix:
  0.231
 -0.977 -0.015 -0.032  0.205 -0.047
  0.231
 -0.205 -0.045  0.035 -0.977 -0.010
  0.652
 -0.000  0.577  0.577  0.000 -0.577
  0.684
 -0.042 -0.195  0.783  0.040  0.588
  0.684
 -0.040  0.791 -0.227 -0.042  0.565
    occupation matrix before diagonalization:
  0.232 -0.011 -0.011  0.000 -0.022
 -0.011  0.672 -0.010 -0.019  0.010
 -0.011 -0.010  0.672  0.019  0.010
  0.000 -0.019  0.019  0.232 -0.000
 -0.022  0.010  0.010 -0.000  0.672
 Atom:    2   Spin:  2
    eigenvalues and eigenvectors of the occupation matrix:
  0.969
 -0.952 -0.016 -0.053  0.293 -0.069
  0.969
  0.293  0.071 -0.049  0.952  0.021
  0.990
  0.000  0.577  0.577  0.000 -0.577
  0.991
 -0.049 -0.365  0.812  0.074  0.447
  0.991
 -0.074  0.727 -0.047 -0.049  0.680
    occupation matrix before diagonalization:
  0.969 -0.001 -0.001  0.000 -0.002
 -0.001  0.990 -0.000 -0.001  0.000
 -0.001 -0.000  0.990  0.001  0.000
  0.000 -0.001  0.001  0.969 -0.000
 -0.002  0.000  0.000 -0.000  0.990
 Atom:    3   Spin:  2
    eigenvalues and eigenvectors of the occupation matrix:
  0.779
  0.754  0.648  0.106
  0.779
 -0.313  0.497 -0.810
  0.781
 -0.577  0.577  0.577
    occupation matrix before diagonalization:
  0.780 -0.001 -0.001
 -0.001  0.780  0.001
 -0.001  0.001  0.780
 Atom:    4   Spin:  2
    eigenvalues and eigenvectors of the occupation matrix:
  0.779
  0.707  0.707  0.000
  0.779
 -0.408  0.408 -0.816
  0.781
 -0.577  0.577  0.577
    occupation matrix before diagonalization:
  0.780 -0.001 -0.001
 -0.001  0.780  0.001
 -0.001  0.001  0.780
atom    1   Tr[ns(na)]=   7.3901033
atom    1   Mag[ns(na)]=   2.4273288
atom    2   Tr[ns(na)]=   7.3900997
atom    2   Mag[ns(na)]=  -2.4273326
atom    3   Tr[ns(na)]=   4.6789836
atom    3   Mag[ns(na)]=   0.0000000
atom    4   Tr[ns(na)]=   4.6789836
atom    4   Mag[ns(na)]=   0.0000000
 --- exit write_nsg ---
 --- in v_hubbard_extended ---
Hubbard energy    0.0000
 -----------------------------
 
     Magnetic moment per site:
     atom:    1    charge:   14.6301    magn:    2.3547    constr:    0.0000
     atom:    2    charge:   14.6301    magn:   -2.3547    constr:    0.0000
     atom:    3    charge:    5.7211    magn:    0.0000    constr:    0.0000
     atom:    4    charge:    5.7211    magn:    0.0000    constr:    0.0000

     total cpu time spent up to now is        6.4 secs

     End of self-consistent calculation

 ------ SPIN UP ------------


          k = 0.0000 0.0000 0.0000 (   923 PWs)   bands (ev):

   -82.8987 -79.7287 -46.3074 -46.3074 -46.2488 -43.2494 -43.2494 -43.2227
    -6.5111  -5.2292   5.5447   8.0242   8.0242  10.5227  10.5227  10.5496
    10.8695  10.8695  11.0664  11.7280  11.7280  13.3017  13.3017  13.5441
    14.6126  15.4221  15.4221  18.5132

     occupation numbers 
     1.0000   1.0000   1.0000   1.0000   1.0000   1.0000   1.0000   1.0000
     1.0000   1.0000   1.0000   1.0000   1.0000   1.0000   1.0000   1.0000
     1.0000   1.0000   1.0000   1.0000   1.0000   1.0617   1.0617   0.9868
     0.0000   0.0000   0.0000   0.0000

          k = 0.4959-0.1649-0.1649 (   913 PWs)   bands (ev):

   -82.8971 -79.7267 -46.3284 -46.3129 -46.2460 -43.2747 -43.2559 -43.2193
    -5.6843  -5.1426   6.8338   6.9705   7.4108   8.2360   8.7003   9.1040
    10.8228  11.3696  11.6834  12.2762  12.4408  12.9591  13.7587  13.8649
    14.8305  15.1081  18.8112  22.0119

     occupation numbers 
     1.0000   1.0000   1.0000   1.0000   1.0000   1.0000   1.0000   1.0000
     1.0000   1.0000   1.0000   1.0000   1.0000   1.0000   1.0000   1.0000
     1.0000   1.0000   1.0000   1.0000   1.0000   1.0013   0.4702   0.2262
     0.0000   0.0000   0.0000   0.0000

          k = 0.3311 0.3311-0.3297 (   921 PWs)   bands (ev):

   -82.8971 -79.7267 -46.3284 -46.3132 -46.2462 -43.2746 -43.2561 -43.2194
    -5.6066  -5.2252   6.4701   6.7816   8.1482   8.3303   8.6217   8.9693
    10.7384  11.3636  11.5183  12.4458  12.5762  13.0290  13.7616  13.8022
    15.1667  15.2318  18.1339  20.4072

     occupation numbers 
     1.0000   1.0000   1.0000   1.0000   1.0000   1.0000   1.0000   1.0000
     1.0000   1.0000   1.0000   1.0000   1.0000   1.0000   1.0000   1.0000
     1.0000   1.0000   1.0000   1.0000   1.0000   1.0037   0.4628   0.3597
     0.0000   0.0000   0.0000   0.0000

          k =-0.6608 0.6608 0.0000 (   908 PWs)   bands (ev):

   -82.8962 -79.7257 -46.3272 -46.3271 -46.2444 -43.2731 -43.2731 -43.2174
    -5.1506  -5.1504   6.7193   6.8646   7.3837   7.6745   8.2075   8.4006
    11.2867  11.4318  11.4722  12.2438  12.4791  13.6123  13.6794  13.7243
    15.0246  15.1913  21.9082  22.1929

     occupation numbers 
     1.0000   1.0000   1.0000   1.0000   1.0000   1.0000   1.0000   1.0000
     1.0000   1.0000   1.0000   1.0000   1.0000   1.0000   1.0000   1.0000
     1.0000   1.0000   1.0000   1.0000   1.0000   0.8573   0.6878   0.5639
     0.0000   0.0000   0.0000   0.0000

          k = 0.1662 0.1662 0.1662 (   939 PWs)   bands (ev):

   -82.8988 -79.7287 -46.3077 -46.3077 -46.2492 -43.2496 -43.2496 -43.2232
    -6.2275  -5.5922   6.4818   8.3116   8.3116   8.7093   9.6141   9.6141
    10.9210  10.9210  11.2854  12.6019  12.6019  13.2290  13.2290  13.3314
    15.1079  15.1079  16.1967  18.1433

     occupation numbers 
     1.0000   1.0000   1.0000   1.0000   1.0000   1.0000   1.0000   1.0000
     1.0000   1.0000   1.0000   1.0000   1.0000   1.0000   1.0000   1.0000
     1.0000   1.0000   1.0000   1.0000   1.0000   1.0373   1.0373   1.0713
     0.0000   0.0000   0.0000   0.0000

          k =-0.8257 0.4959 0.4959 (   898 PWs)   bands (ev):

   -82.8970 -79.7267 -46.3281 -46.3125 -46.2458 -43.2744 -43.2556 -43.2192
    -5.4965  -5.3362   6.2214   6.7767   8.1587   8.1734   9.3324   9.3807
    10.4029  11.3909  11.5854  12.0235  12.1591  13.1935  13.7399  13.8516
    14.6934  15.4587  19.6261  19.7199

     occupation numbers 
     1.0000   1.0000   1.0000   1.0000   1.0000   1.0000   1.0000   1.0000
     1.0000   1.0000   1.0000   1.0000   1.0000   1.0000   1.0000   1.0000
     1.0000   1.0000   1.0000   1.0000   1.0000   1.0272   0.5213   0.2515
     0.0000   0.0000   0.0000   0.0000

 ------ SPIN DOWN ----------


          k = 0.0000 0.0000 0.0000 (   923 PWs)   bands (ev):

   -82.8987 -79.7287 -46.3073 -46.3073 -46.2489 -43.2494 -43.2494 -43.2227
    -6.5111  -5.2292   5.5447   8.0242   8.0242  10.5227  10.5227  10.5496
    10.8696  10.8696  11.0663  11.7280  11.7280  13.3017  13.3017  13.5441
    14.6126  15.4221  15.4221  18.5132

     occupation numbers 
     1.0000   1.0000   1.0000   1.0000   1.0000   1.0000   1.0000   1.0000
     1.0000   1.0000   1.0000   1.0000   1.0000   1.0000   1.0000   1.0000
     1.0000   1.0000   1.0000   1.0000   1.0000   1.0617   1.0617   0.9868
     0.0000   0.0000   0.0000   0.0000

          k = 0.4959-0.1649-0.1649 (   913 PWs)   bands (ev):

   -82.8971 -79.7267 -46.3284 -46.3129 -46.2460 -43.2747 -43.2559 -43.2193
    -5.6843  -5.1426   6.8338   6.9705   7.4108   8.2360   8.7003   9.1040
    10.8228  11.3696  11.6834  12.2762  12.4408  12.9591  13.7587  13.8649
    14.8305  15.1081  18.8112  22.0108

     occupation numbers 
     1.0000   1.0000   1.0000   1.0000   1.0000   1.0000   1.0000   1.0000
     1.0000   1.0000   1.0000   1.0000   1.0000   1.0000   1.0000   1.0000
     1.0000   1.0000   1.0000   1.0000   1.0000   1.0013   0.4702   0.2262
     0.0000   0.0000   0.0000   0.0000

          k = 0.3311 0.3311-0.3297 (   921 PWs)   bands (ev):

   -82.8971 -79.7267 -46.3284 -46.3132 -46.2462 -43.2746 -43.2561 -43.2194
    -5.6066  -5.2252   6.4701   6.7816   8.1482   8.3303   8.6217   8.9693
    10.7384  11.3636  11.5183  12.4458  12.5762  13.0290  13.7616  13.8022
    15.1667  15.2318  18.1339  20.4072

     occupation numbers 
     1.0000   1.0000   1.0000   1.0000   1.0000   1.0000   1.0000   1.0000
     1.0000   1.0000   1.0000   1.0000   1.0000   1.0000   1.0000   1.0000
     1.0000   1.0000   1.0000   1.0000   1.0000   1.0037   0.4628   0.3597
     0.0000   0.0000   0.0000   0.0000

          k =-0.6608 0.6608 0.0000 (   908 PWs)   bands (ev):

   -82.8962 -79.7257 -46.3272 -46.3271 -46.2444 -43.2731 -43.2731 -43.2174
    -5.1506  -5.1504   6.7193   6.8646   7.3837   7.6745   8.2075   8.4006
    11.2867  11.4318  11.4722  12.2438  12.4791  13.6123  13.6794  13.7243
    15.0246  15.1913  21.9082  21.9890

     occupation numbers 
     1.0000   1.0000   1.0000   1.0000   1.0000   1.0000   1.0000   1.0000
     1.0000   1.0000   1.0000   1.0000   1.0000   1.0000   1.0000   1.0000
     1.0000   1.0000   1.0000   1.0000   1.0000   0.8573   0.6878   0.5639
     0.0000   0.0000   0.0000   0.0000

          k = 0.1662 0.1662 0.1662 (   939 PWs)   bands (ev):

   -82.8988 -79.7287 -46.3077 -46.3077 -46.2492 -43.2496 -43.2496 -43.2232
    -6.2275  -5.5922   6.4818   8.3116   8.3116   8.7093   9.6141   9.6141
    10.9210  10.9210  11.2854  12.6019  12.6019  13.2290  13.2290  13.3314
    15.1079  15.1079  16.1967  18.1433

     occupation numbers 
     1.0000   1.0000   1.0000   1.0000   1.0000   1.0000   1.0000   1.0000
     1.0000   1.0000   1.0000   1.0000   1.0000   1.0000   1.0000   1.0000
     1.0000   1.0000   1.0000   1.0000   1.0000   1.0373   1.0373   1.0713
     0.0000   0.0000   0.0000   0.0000

          k =-0.8257 0.4959 0.4959 (   898 PWs)   bands (ev):

   -82.8970 -79.7267 -46.3281 -46.3125 -46.2458 -43.2744 -43.2556 -43.2192
    -5.4965  -5.3362   6.2214   6.7767   8.1587   8.1734   9.3324   9.3807
    10.4029  11.3909  11.5854  12.0235  12.1591  13.1935  13.7399  13.8516
    14.6934  15.4587  19.6261  19.7199

     occupation numbers 
     1.0000   1.0000   1.0000   1.0000   1.0000   1.0000   1.0000   1.0000
     1.0000   1.0000   1.0000   1.0000   1.0000   1.0000   1.0000   1.0000
     1.0000   1.0000   1.0000   1.0000   1.0000   1.0272   0.5213   0.2515
     0.0000   0.0000   0.0000   0.0000

     the Fermi energy is    13.7856 ev

!    total energy              =    -678.70845541 Ry
     estimated scf accuracy    <          9.0E-12 Ry
     smearing contrib. (-TS)   =      -0.00899672 Ry
     internal energy E=F+TS    =    -678.69945868 Ry

     The total energy is F=E-TS. E is the sum of the following terms:
     one-electron contribution =    -365.14706010 Ry
     hartree contribution      =     209.17910535 Ry
     xc contribution           =     -79.31621905 Ry
     ewald contribution        =    -425.18714290 Ry
     Hubbard energy            =       0.00000000 Ry
     one-center paw contrib.   =     -18.22814199 Ry
      -> PAW hartree energy AE =       0.00000000 Ry
      -> PAW hartree energy PS =       0.00000000 Ry
      -> PAW xc energy AE      =       0.00000000 Ry
      -> PAW xc energy PS      =       0.00000000 Ry
      -> total E_H with PAW    =     209.17910535 Ry
      -> total E_XC with PAW   =     -79.31621905 Ry

     total magnetization       =    -0.00 Bohr mag/cell
     absolute magnetization    =     5.06 Bohr mag/cell

     convergence has been achieved in  17 iterations

     Writing output data file ./tmp/CoO.save/
 
     init_run     :      0.33s CPU      0.39s WALL (       1 calls)
     electrons    :      5.33s CPU      5.82s WALL (       1 calls)

     Called by init_run:
     wfcinit      :      0.09s CPU      0.10s WALL (       1 calls)
     wfcinit:atom :      0.00s CPU      0.00s WALL (      12 calls)
     wfcinit:wfcr :      0.08s CPU      0.09s WALL (      12 calls)
     potinit      :      0.06s CPU      0.09s WALL (       1 calls)
     hinit0       :      0.14s CPU      0.16s WALL (       1 calls)

     Called by electrons:
     c_bands      :      2.96s CPU      3.14s WALL (      17 calls)
     sum_band     :      1.20s CPU      1.26s WALL (      17 calls)
     v_of_rho     :      0.39s CPU      0.40s WALL (      18 calls)
     v_h          :      0.01s CPU      0.01s WALL (      18 calls)
     v_xc         :      0.38s CPU      0.39s WALL (      18 calls)
     newd         :      0.29s CPU      0.30s WALL (      18 calls)
     PAW_pot      :      0.48s CPU      0.73s WALL (      18 calls)
     mix_rho      :      0.04s CPU      0.04s WALL (      17 calls)

     Called by c_bands:
     init_us_2    :      0.03s CPU      0.03s WALL (     432 calls)
     cegterg      :      2.87s CPU      3.05s WALL (     204 calls)

     Called by sum_band:
     sum_band:wei :      0.01s CPU      0.01s WALL (      17 calls)
     sum_band:loo :      0.63s CPU      0.68s WALL (      17 calls)
     sum_band:buf :      0.00s CPU      0.00s WALL (     204 calls)
     sum_band:ini :      0.01s CPU      0.01s WALL (     204 calls)
     sum_band:cal :      0.02s CPU      0.02s WALL (     204 calls)
     sum_band:bec :      0.00s CPU      0.00s WALL (     204 calls)
     addusdens    :      0.49s CPU      0.50s WALL (      17 calls)
     addusd:skk   :      0.00s CPU      0.00s WALL (      51 calls)
     addusd:dgemm :      0.11s CPU      0.11s WALL (     102 calls)
     addusd:qvan2 :      0.38s CPU      0.38s WALL (     102 calls)

     Called by *egterg:
     cdiaghg      :      0.40s CPU      0.42s WALL (     606 calls)
     cegterg:over :      0.04s CPU      0.05s WALL (     402 calls)
     cegterg:upda :      0.01s CPU      0.01s WALL (     402 calls)
     cegterg:last :      0.03s CPU      0.03s WALL (     341 calls)
     h_psi        :      2.40s CPU      2.55s WALL (     618 calls)
     s_psi        :      0.02s CPU      0.02s WALL (     630 calls)
     g_psi        :      0.01s CPU      0.01s WALL (     402 calls)

     Called by h_psi:
     h_psi:calbec :      0.04s CPU      0.04s WALL (     618 calls)
     vloc_psi     :      2.28s CPU      2.42s WALL (     618 calls)
     add_vuspsi   :      0.02s CPU      0.03s WALL (     618 calls)
     vhpsi        :      0.05s CPU      0.05s WALL (     618 calls)

     General routines
     calbec       :      0.08s CPU      0.09s WALL (    1656 calls)
     fft          :      0.17s CPU      0.18s WALL (     444 calls)
     ffts         :      0.01s CPU      0.01s WALL (      70 calls)
     fftw         :      2.61s CPU      2.78s WALL (   32798 calls)
     interpolate  :      0.02s CPU      0.02s WALL (      36 calls)
     davcio       :      0.00s CPU      0.00s WALL (      12 calls)
 
     Parallel routines
     fft_scatt_xy :      0.33s CPU      0.35s WALL (   33312 calls)
     fft_scatt_yz :      0.96s CPU      1.03s WALL (   33312 calls)

     Hubbard U routines
     new_nsg      :      0.02s CPU      0.02s WALL (      17 calls)
     alloc_neigh  :      0.00s CPU      0.00s WALL (       1 calls)
     vhpsi        :      0.05s CPU      0.05s WALL (     618 calls)

     PAW routines
     PAW_pot      :      0.48s CPU      0.73s WALL (      18 calls)
     PAW_symme    :      0.00s CPU      0.00s WALL (      35 calls)
 
     PWSCF        :      5.86s CPU      6.42s WALL

 
   This run was terminated on:  14:32:18   7Jun2021            

=------------------------------------------------------------------------------=
   JOB DONE.
=------------------------------------------------------------------------------=
