
     Program HP v.6.7MaX starts on  7Jun2021 at 14:32:31 

     This program is part of the open-source Quantum ESPRESSO suite
     for quantum simulation of materials; please cite
         "P. Giannozzi et al., J. Phys.:Condens. Matter 21 395502 (2009);
         "P. Giannozzi et al., J. Phys.:Condens. Matter 29 465901 (2017);
          URL http://www.quantum-espresso.org", 
     in publications or presentations arising from this work. More details at
     http://www.quantum-espresso.org/quote

     Parallel version (MPI), running on     8 processors

     MPI processes distributed on     1 nodes
     R & G space division:  proc/nbgrp/npool/nimage =       8

     =--------------------------------------------------------------------------=

       Calculation of Hubbard parameters from DFPT; please cite this program as

       I. Timrov, N. Marzari, and M. Cococcioni, Phys. Rev. B 98, 085127 (2018)

     =--------------------------------------------------------------------------=

     Reading xml data from directory:

     ./tmp/CoO.save/
     Message from routine volume:
     axis vectors are left-handed
     file O.pbesol-n-kjpaw_psl.0.1.UPF: wavefunction(s)  2P renormalized

     IMPORTANT: XC functional enforced from input :
     Exchange-correlation= PBESOL
                           (   1   4  10   8   0   0   0)
     Any further DFT definition will be discarded
     Please, verify this is what you really want

 
     Parallelization info
     --------------------
     sticks:   dense  smooth     PW     G-vecs:    dense   smooth      PW
     Min         150      74     24                 2587      920     173
     Max         151      75     25                 2588      922     174
     Sum        1201     597    199                20701     7367    1387
 

     Check: negative core charge=   -0.000039
     Reading collected, re-writing distributed wavefunctions
 

     bravais-lattice index     =             0
     lattice parameter (alat)  =        8.0000 (a.u.)
     unit-cell volume          =      261.2912 (a.u.)^3
     number of atoms/cell      =             4
     number of atomic types    =             3
     kinetic-energy cut-off    =         35.00 (Ry)
     charge density cut-off    =        280.00 (Ry)
     conv. thresh. for NSCF    =       1.0E-11
     conv. thresh. for chi     =       1.0E-06
     Input Hubbard parameters (in eV):
       V (  1,   1)  =   0.0000
       V (  2,   2)  =   0.0000
       V (  3,   3)  =   0.0000
       V (  4,   4)  =   0.0000

     celldm(1) =  8.00000  celldm(2) =  0.00000  celldm(3) =  0.00000
     celldm(4) =  0.00000  celldm(5) =  0.00000  celldm(6) =  0.00000

     crystal axes: (cart. coord. in units of alat)
               a(1) = (  0.5004  0.5004  1.0048 )  
               a(2) = (  0.5004  1.0048  0.5004 )  
               a(3) = (  1.0048  0.5004  0.5004 )  

     reciprocal axes: (cart. coord. in units 2 pi/alat)
               b(1) = ( -0.4946 -0.4946  1.4878 )  
               b(2) = ( -0.4946  1.4878 -0.4946 )  
               b(3) = (  1.4878 -0.4946 -0.4946 )  

     Atoms inside the unit cell (Cartesian axes):
     site n.  atom      mass           positions (alat units)
        1      Co1    58.9332   tau(  1) = (  0.00000  0.00000  0.00000  )
        2      Co2    58.9332   tau(  2) = (  1.00279  1.00279  1.00279  )
        3      O      15.9990   tau(  3) = (  0.50139  0.50139  0.50139  )
        4      O      15.9990   tau(  4) = (  1.50418  1.50418  1.50418  )

     List of  2 atoms which will be perturbed (one at a time):

        1      Co1    58.9332   tau( 1) = (  0.00000  0.00000  0.00000  )
        3      O      15.9990   tau( 3) = (  0.50139  0.50139  0.50139  )
 
     =====================================================================

                          PERTURBED ATOM #    1

     site n.  atom      mass           positions (alat units)
        1      Co1    58.9332   tau( 1) = (  0.00000  0.00000  0.00000  )
 
     =====================================================================

     The perturbed atom has a type which is unique!


     The grid of q-points ( 2, 2, 2)  (  4 q-points ) :
       N       xq(1)         xq(2)         xq(3)       wq
       1   0.000000000   0.000000000   0.000000000   0.125000000
       2  -0.743903412   0.247299460   0.247299460   0.375000000
       3  -0.496603951  -0.496603951   0.494598921   0.375000000
       4  -0.249304491  -0.249304491  -0.249304491   0.125000000


     =-------------------------------------------------------------=

     Calculation for q #   1 = (   0.0000000   0.0000000   0.0000000 )

     =-------------------------------------------------------------=

                   WRITING LINEAR-RESPONSE SUMMARY:


     Number of symmetries in the small group of q, nsymq = 12
      + the symmetry q -> -q+G 

     G cutoff =  453.9189  (   2588 G-vectors)     FFT grid: ( 54, 54, 54)
     G cutoff =  226.9595  (    922 G-vectors)  smooth grid: ( 40, 40, 40)

     Number of k (and k+q if q/=0) points =    12  Marzari-Vanderbilt smearing, width (Ry) =  0.0200

                       cart. coord. (in units 2pi/alat)
        k (    1) = (   0.0000000   0.0000000   0.0000000), wk = 0.0370370
        k (    2) = (   0.4959356  -0.1648663  -0.1648663), wk = 0.2222222
        k (    3) = (   0.3310693   0.3310693  -0.3297326), wk = 0.2222222
        k (    4) = (  -0.6608019   0.6608019   0.0000000), wk = 0.2222222
        k (    5) = (   0.1662030   0.1662030   0.1662030), wk = 0.0740741
        k (    6) = (  -0.8256682   0.4959356   0.4959356), wk = 0.2222222
        k (    7) = (   0.0000000   0.0000000   0.0000000), wk = 0.0370370
        k (    8) = (   0.4959356  -0.1648663  -0.1648663), wk = 0.2222222
        k (    9) = (   0.3310693   0.3310693  -0.3297326), wk = 0.2222222
        k (   10) = (  -0.6608019   0.6608019   0.0000000), wk = 0.2222222
        k (   11) = (   0.1662030   0.1662030   0.1662030), wk = 0.0740741
        k (   12) = (  -0.8256682   0.4959356   0.4959356), wk = 0.2222222

                       cryst. coord.
        k (    1) = (   0.0000000   0.0000000   0.0000000), wk = 0.0370370
        k (    2) = (  -0.0000000  -0.0000000   0.3333333), wk = 0.2222222
        k (    3) = (  -0.0000000   0.3333333   0.3333333), wk = 0.2222222
        k (    4) = (   0.0000000   0.3333333  -0.3333333), wk = 0.2222222
        k (    5) = (   0.3333333   0.3333333   0.3333333), wk = 0.0740741
        k (    6) = (   0.3333333   0.3333333  -0.3333333), wk = 0.2222222
        k (    7) = (   0.0000000   0.0000000   0.0000000), wk = 0.0370370
        k (    8) = (  -0.0000000  -0.0000000   0.3333333), wk = 0.2222222
        k (    9) = (  -0.0000000   0.3333333   0.3333333), wk = 0.2222222
        k (   10) = (   0.0000000   0.3333333  -0.3333333), wk = 0.2222222
        k (   11) = (   0.3333333   0.3333333   0.3333333), wk = 0.0740741
        k (   12) = (   0.3333333   0.3333333  -0.3333333), wk = 0.2222222

     Atomic wfc used for the projector on the Hubbard manifold are orthogonalized

     Total time spent up to now is:
     HP           :      0.50s CPU      0.57s WALL

      =--------------------------------------------=
             START SOLVING THE LINEAR SYSTEM
      =--------------------------------------------=

      atom #  1   q point #   1   iter #   1
      Fermi energy shift (Ry) =  0.4646E+00 -0.2912E-13
      chi:   1  -2.1982603244
      chi:   2   2.0475885587
      chi:   3   0.0647048054
      chi:   4   0.0647048054
      Average number of iter. to solve lin. system:   33.7
      Total CPU time :     3.2 s

      atom #  1   q point #   1   iter #   2
      Fermi energy shift (Ry) =  0.2384E+00  0.4511E-09
      chi:   1  45.4311851649   residue:   47.6294454893
      chi:   2 -45.4602456518   residue:   47.5078342105
      chi:   3  -0.0090400712   residue:    0.0737448766
      chi:   4  -0.0090400712   residue:    0.0737448766
      Average number of iter. to solve lin. system:   14.6
      Total CPU time :     4.8 s

      atom #  1   q point #   1   iter #   3
      Fermi energy shift (Ry) =  0.2446E+00  0.4845E-10
      chi:   1  -0.3077790725   residue:   45.7389642373
      chi:   2   0.2752839006   residue:   45.7355295524
      chi:   3  -0.0069317844   residue:    0.0021082867
      chi:   4  -0.0069317844   residue:    0.0021082867
      Average number of iter. to solve lin. system:   11.8
      Total CPU time :     6.2 s

      atom #  1   q point #   1   iter #   4
      Fermi energy shift (Ry) =  0.3763E+00  0.4741E-12
      chi:   1  -0.1888801192   residue:    0.1188989532
      chi:   2   0.0820587070   residue:    0.1932251936
      chi:   3   0.0385176064   residue:    0.0454493909
      chi:   4   0.0385176064   residue:    0.0454493909
      Average number of iter. to solve lin. system:   13.0
      Total CPU time :     7.7 s

      atom #  1   q point #   1   iter #   5
      Fermi energy shift (Ry) =  0.3247E+00  0.7651E-13
      chi:   1  -0.1610871437   residue:    0.0277929755
      chi:   2   0.0824974472   residue:    0.0004387402
      chi:   3   0.0212278025   residue:    0.0172898039
      chi:   4   0.0212278025   residue:    0.0172898039
      Average number of iter. to solve lin. system:   13.0
      Total CPU time :     9.1 s

      atom #  1   q point #   1   iter #   6
      Fermi energy shift (Ry) =  0.3229E+00  0.2857E-13
      chi:   1  -0.1252381628   residue:    0.0358489809
      chi:   2   0.0466467387   residue:    0.0358507085
      chi:   3   0.0210714549   residue:    0.0001563476
      chi:   4   0.0210714549   residue:    0.0001563476
      Average number of iter. to solve lin. system:   10.9
      Total CPU time :    10.5 s

      atom #  1   q point #   1   iter #   7
      Fermi energy shift (Ry) =  0.3226E+00  0.3104E-13
      chi:   1  -0.1157655780   residue:    0.0094725848
      chi:   2   0.0370885808   residue:    0.0095581579
      chi:   3   0.0209793125   residue:    0.0000921424
      chi:   4   0.0209793125   residue:    0.0000921424
      Average number of iter. to solve lin. system:   12.0
      Total CPU time :    11.9 s

      atom #  1   q point #   1   iter #   8
      Fermi energy shift (Ry) =  0.3230E+00  0.3139E-13
      chi:   1  -0.1161536468   residue:    0.0003880688
      chi:   2   0.0372856707   residue:    0.0001970899
      chi:   3   0.0210045615   residue:    0.0000252490
      chi:   4   0.0210045615   residue:    0.0000252490
      Average number of iter. to solve lin. system:   13.0
      Total CPU time :    13.4 s

      atom #  1   q point #   1   iter #   9
      Fermi energy shift (Ry) =  0.3234E+00  0.3134E-13
      chi:   1  -0.1143999723   residue:    0.0017536745
      chi:   2   0.0353348835   residue:    0.0019507872
      chi:   3   0.0210490466   residue:    0.0000444852
      chi:   4   0.0210490466   residue:    0.0000444852
      Average number of iter. to solve lin. system:   13.0
      Total CPU time :    14.9 s

      atom #  1   q point #   1   iter #  10
      Fermi energy shift (Ry) =  0.3238E+00 -0.2695E-12
      chi:   1  -0.1146465311   residue:    0.0002465588
      chi:   2   0.0354429275   residue:    0.0001080439
      chi:   3   0.0211054647   residue:    0.0000564181
      chi:   4   0.0211054647   residue:    0.0000564181
      Average number of iter. to solve lin. system:   16.3
      Total CPU time :    16.5 s

      atom #  1   q point #   1   iter #  11
      Fermi energy shift (Ry) =  0.3238E+00  0.3149E-13
      chi:   1  -0.1144739179   residue:    0.0001726132
      chi:   2   0.0352705248   residue:    0.0001724026
      chi:   3   0.0211009843   residue:    0.0000044804
      chi:   4   0.0211009843   residue:    0.0000044804
      Average number of iter. to solve lin. system:   14.7
      Total CPU time :    18.1 s

      atom #  1   q point #   1   iter #  12
      Fermi energy shift (Ry) =  0.3238E+00  0.3101E-13
      chi:   1  -0.1145187876   residue:    0.0000448697
      chi:   2   0.0353174655   residue:    0.0000469407
      chi:   3   0.0211059836   residue:    0.0000049994
      chi:   4   0.0211059836   residue:    0.0000049994
      Average number of iter. to solve lin. system:   14.6
      Total CPU time :    19.7 s

      atom #  1   q point #   1   iter #  13
      Fermi energy shift (Ry) =  0.3238E+00  0.3126E-13
      chi:   1  -0.1145654570   residue:    0.0000466694
      chi:   2   0.0353879836   residue:    0.0000705180
      chi:   3   0.0210952550   residue:    0.0000107287
      chi:   4   0.0210952550   residue:    0.0000107287
      Average number of iter. to solve lin. system:   14.2
      Total CPU time :    21.2 s

      atom #  1   q point #   1   iter #  14
      Fermi energy shift (Ry) =  0.3238E+00  0.3067E-13
      chi:   1  -0.1145527270   residue:    0.0000127301
      chi:   2   0.0353699530   residue:    0.0000180306
      chi:   3   0.0210981830   residue:    0.0000029280
      chi:   4   0.0210981830   residue:    0.0000029280
      Average number of iter. to solve lin. system:   14.1
      Total CPU time :    22.8 s

      atom #  1   q point #   1   iter #  15
      Fermi energy shift (Ry) =  0.3238E+00  0.3470E-13
      chi:   1  -0.1145587065   residue:    0.0000059795
      chi:   2   0.0353794338   residue:    0.0000094808
      chi:   3   0.0210962480   residue:    0.0000019350
      chi:   4   0.0210962480   residue:    0.0000019350
      Average number of iter. to solve lin. system:   15.9
      Total CPU time :    24.4 s

      atom #  1   q point #   1   iter #  16
      Fermi energy shift (Ry) =  0.3238E+00  0.3088E-13
      chi:   1  -0.1145432814   residue:    0.0000154251
      chi:   2   0.0353625111   residue:    0.0000169226
      chi:   3   0.0210965036   residue:    0.0000002556
      chi:   4   0.0210965036   residue:    0.0000002556
      Average number of iter. to solve lin. system:   13.5
      Total CPU time :    25.9 s

      atom #  1   q point #   1   iter #  17
      Fermi energy shift (Ry) =  0.3238E+00  0.3088E-13
      chi:   1  -0.1145505006   residue:    0.0000072192
      chi:   2   0.0353698310   residue:    0.0000073198
      chi:   3   0.0210967961   residue:    0.0000002925
      chi:   4   0.0210967961   residue:    0.0000002925
      Average number of iter. to solve lin. system:   12.8
      Total CPU time :    27.4 s

      atom #  1   q point #   1   iter #  18
      Fermi energy shift (Ry) =  0.3238E+00  0.3159E-13
      chi:   1  -0.1145471374   residue:    0.0000033631
      chi:   2   0.0353669716   residue:    0.0000028594
      chi:   3   0.0210964865   residue:    0.0000003096
      chi:   4   0.0210964865   residue:    0.0000003096
      Average number of iter. to solve lin. system:   16.7
      Total CPU time :    29.1 s

      atom #  1   q point #   1   iter #  19
      Fermi energy shift (Ry) =  0.3238E+00  0.3092E-13
      chi:   1  -0.1145503254   residue:    0.0000031880
      chi:   2   0.0353702381   residue:    0.0000032665
      chi:   3   0.0210965113   residue:    0.0000000248
      chi:   4   0.0210965113   residue:    0.0000000248
      Average number of iter. to solve lin. system:   13.2
      Total CPU time :    30.5 s

      atom #  1   q point #   1   iter #  20
      Fermi energy shift (Ry) =  0.3238E+00  0.3093E-13
      chi:   1  -0.1145501359   residue:    0.0000001895
      chi:   2   0.0353696857   residue:    0.0000005524
      chi:   3   0.0210966245   residue:    0.0000001132
      chi:   4   0.0210966245   residue:    0.0000001132
      Average number of iter. to solve lin. system:   14.7
      Total CPU time :    32.1 s
      
      =--------------------------------------------=
             CONVERGENCE HAS BEEN REACHED
      =--------------------------------------------=


     =-------------------------------------------------------------=

     Calculation for q #   2 = (  -0.7439034   0.2472995   0.2472995 )

     =-------------------------------------------------------------=

     Performing NSCF calculation at all points k and k+q...

     Subspace diagonalization in iterative solution of the eigenvalue problem:
     a serial algorithm will be used

 
     Parallelization info
     --------------------
     sticks:   dense  smooth     PW     G-vecs:    dense   smooth      PW
     Min         150      74     28                 2587      920     221
     Max         151      75     29                 2588      922     224
     Sum        1201     597    229                20701     7367    1779
 


     bravais-lattice index     =            0
     lattice parameter (alat)  =       8.0000  a.u.
     unit-cell volume          =     261.2912 (a.u.)^3
     number of atoms/cell      =            4
     number of atomic types    =            3
     number of electrons       =        46.00
     number of Kohn-Sham states=           28
     kinetic-energy cutoff     =      35.0000  Ry
     charge density cutoff     =     280.0000  Ry
     Exchange-correlation= PBESOL
                           (   1   4  10   8   0   0   0)

     celldm(1)=   8.000000  celldm(2)=   0.000000  celldm(3)=   0.000000
     celldm(4)=   0.000000  celldm(5)=   0.000000  celldm(6)=   0.000000

     crystal axes: (cart. coord. in units of alat)
               a(1) = (   0.500381   0.500381   1.004818 )  
               a(2) = (   0.500381   1.004818   0.500381 )  
               a(3) = (   1.004818   0.500381   0.500381 )  

     reciprocal axes: (cart. coord. in units 2 pi/alat)
               b(1) = ( -0.494599 -0.494599  1.487807 )  
               b(2) = ( -0.494599  1.487807 -0.494599 )  
               b(3) = (  1.487807 -0.494599 -0.494599 )  


     PseudoPot. # 1 for Co read from file:
     ../files/pseudo/co_pbesol_v1.2.uspp.F.UPF
     MD5 check sum: 3b4cd4e7cc7df4da9fdede0fd33e2193
     Pseudo is Ultrasoft + core correction, Zval = 17.0
     Generated by new atomic code, or converted to UPF format
     Using radial grid of  863 points,  6 beta functions with: 
                l(1) =   0
                l(2) =   0
                l(3) =   1
                l(4) =   1
                l(5) =   2
                l(6) =   2
     Q(r) pseudized with  8 coefficients,  rinner =    1.200   1.200   1.200
                                                       1.200   1.200

     PseudoPot. # 2 for Co read from file:
     ../files/pseudo/co_pbesol_v1.2.uspp.F.UPF
     MD5 check sum: 3b4cd4e7cc7df4da9fdede0fd33e2193
     Pseudo is Ultrasoft + core correction, Zval = 17.0
     Generated by new atomic code, or converted to UPF format
     Using radial grid of  863 points,  6 beta functions with: 
                l(1) =   0
                l(2) =   0
                l(3) =   1
                l(4) =   1
                l(5) =   2
                l(6) =   2
     Q(r) pseudized with  8 coefficients,  rinner =    1.200   1.200   1.200
                                                       1.200   1.200

     PseudoPot. # 3 for O  read from file:
     ../files/pseudo/O.pbesol-n-kjpaw_psl.0.1.UPF
     MD5 check sum: 126339daddaa87477ab44acfa0b5aa00
     Pseudo is Projector augmented-wave + core cor, Zval =  6.0
     Generated using "atomic" code by A. Dal Corso  v.6.0 svn rev. 13079
     Shape of augmentation charge: BESSEL
     Using radial grid of 1095 points,  4 beta functions with: 
                l(1) =   0
                l(2) =   0
                l(3) =   1
                l(4) =   1
     Q(r) pseudized with 0 coefficients 


     atomic species   valence    mass     pseudopotential
        Co1           17.00    58.93319     Co( 1.00)
        Co2           17.00    58.93319     Co( 1.00)
        O              6.00    15.99900     O ( 1.00)

     Starting magnetic structure 
     atomic species   magnetization
        Co1          0.500
        Co2         -0.500
        O            0.000



     12 Sym. Ops., with inversion, found



   Cartesian axes

     site n.     atom                  positions (alat units)
         1           Co1 tau(   1) = (   0.0000000   0.0000000   0.0000000  )
         2           Co2 tau(   2) = (   1.0027898   1.0027898   1.0027898  )
         3           O   tau(   3) = (   0.5013949   0.5013949   0.5013949  )
         4           O   tau(   4) = (   1.5041847   1.5041847   1.5041847  )

     number of k points=    20  Marzari-Vanderbilt smearing, width (Ry)=  0.0200
                       cart. coord. in units 2pi/alat
        k(    1) = (   0.0000000   0.0000000   0.0000000), wk =   0.0370370
        k(    2) = (  -0.7439034   0.2472995   0.2472995), wk =   0.0000000
        k(    3) = (   0.4959356  -0.1648663  -0.1648663), wk =   0.0740741
        k(    4) = (  -0.2479678   0.0824332   0.0824332), wk =   0.0000000
        k(    5) = (   0.3310693   0.3310693  -0.3297326), wk =   0.1481481
        k(    6) = (  -0.4128341   0.5783688  -0.0824332), wk =   0.0000000
        k(    7) = (  -0.6608019   0.6608019   0.0000000), wk =   0.1481481
        k(    8) = (  -1.4047053   0.9081014   0.2472995), wk =   0.0000000
        k(    9) = (   0.1662030   0.1662030   0.1662030), wk =   0.0740741
        k(   10) = (  -0.5777004   0.4135025   0.4135025), wk =   0.0000000
        k(   11) = (  -0.8256682   0.4959356   0.4959356), wk =   0.0740741
        k(   12) = (  -1.5695716   0.7432351   0.7432351), wk =   0.0000000
        k(   13) = (  -0.1648663  -0.1648663   0.4959356), wk =   0.1481481
        k(   14) = (  -0.9087697   0.0824332   0.7432351), wk =   0.0000000
        k(   15) = (  -0.3297326   0.3310693   0.3310693), wk =   0.0740741
        k(   16) = (  -1.0736360   0.5783688   0.5783688), wk =   0.0000000
        k(   17) = (   0.0000000  -0.6608019   0.6608019), wk =   0.0740741
        k(   18) = (  -0.7439034  -0.4135025   0.9081014), wk =   0.0000000
        k(   19) = (   0.4959356   0.4959356  -0.8256682), wk =   0.1481481
        k(   20) = (  -0.2479678   0.7432351  -0.5783688), wk =   0.0000000

     Dense  grid:    20701 G-vectors     FFT dimensions: (  54,  54,  54)

     Smooth grid:     7367 G-vectors     FFT dimensions: (  40,  40,  40)

     Estimated max dynamical RAM per process >      14.38 MB

     Estimated total dynamical RAM >     115.05 MB

     Check: negative core charge=   -0.000039

     The potential is recalculated from file :
     ./tmp/HP/CoO.save/charge-density

     Number of +U iterations with fixed ns =  0
     Starting occupations:
 --- enter write_nsg ---
 Atom:    1   Spin:  1
    eigenvalues and eigenvectors of the occupation matrix:
  0.969
  0.892  0.004  0.060 -0.443  0.065
  0.969
  0.443  0.072 -0.040  0.892  0.032
  0.990
  0.000  0.577  0.577  0.000 -0.577
  0.991
  0.057  0.280 -0.801 -0.068 -0.521
  0.991
  0.068 -0.764  0.139  0.057 -0.624
    occupation matrix before diagonalization:
  0.969 -0.001 -0.001  0.000 -0.002
 -0.001  0.990 -0.000 -0.001  0.000
 -0.001 -0.000  0.990  0.001  0.000
  0.000 -0.001  0.001  0.969 -0.000
 -0.002  0.000  0.000 -0.000  0.990
 Atom:    2   Spin:  1
    eigenvalues and eigenvectors of the occupation matrix:
  0.231
 -0.196 -0.045  0.036 -0.979 -0.009
  0.231
 -0.979 -0.015 -0.031  0.196 -0.047
  0.652
 -0.000  0.577  0.577  0.000 -0.577
  0.684
  0.042  0.203 -0.785 -0.041 -0.582
  0.684
 -0.041  0.789 -0.219 -0.042  0.570
    occupation matrix before diagonalization:
  0.232 -0.011 -0.011  0.000 -0.022
 -0.011  0.672 -0.010 -0.019  0.010
 -0.011 -0.010  0.672  0.019  0.010
  0.000 -0.019  0.019  0.232 -0.000
 -0.022  0.010  0.010 -0.000  0.672
 Atom:    3   Spin:  1
    eigenvalues and eigenvectors of the occupation matrix:
  0.779
  0.733  0.679  0.054
  0.779
 -0.360  0.454 -0.815
  0.781
 -0.577  0.577  0.577
    occupation matrix before diagonalization:
  0.780 -0.001 -0.001
 -0.001  0.780  0.001
 -0.001  0.001  0.780
 Atom:    4   Spin:  1
    eigenvalues and eigenvectors of the occupation matrix:
  0.779
  0.733  0.679  0.054
  0.779
 -0.361  0.454 -0.815
  0.781
 -0.577  0.577  0.577
    occupation matrix before diagonalization:
  0.780 -0.001 -0.001
 -0.001  0.780  0.001
 -0.001  0.001  0.780
 Atom:    1   Spin:  2
    eigenvalues and eigenvectors of the occupation matrix:
  0.231
  0.396 -0.028  0.047 -0.916  0.019
  0.231
 -0.916 -0.038 -0.005 -0.396 -0.044
  0.652
 -0.000  0.577  0.577  0.000 -0.577
  0.684
 -0.032 -0.360  0.813  0.048  0.453
  0.684
 -0.048  0.731 -0.054 -0.032  0.677
    occupation matrix before diagonalization:
  0.232 -0.011 -0.011  0.000 -0.022
 -0.011  0.672 -0.010 -0.019  0.010
 -0.011 -0.010  0.672  0.019  0.010
  0.000 -0.019  0.019  0.232 -0.000
 -0.022  0.010  0.010 -0.000  0.672
 Atom:    2   Spin:  2
    eigenvalues and eigenvectors of the occupation matrix:
  0.969
 -0.935 -0.012 -0.056  0.344 -0.068
  0.969
  0.344  0.071 -0.046  0.935  0.025
  0.990
  0.000  0.577  0.577  0.000 -0.577
  0.991
  0.062  0.216 -0.787 -0.063 -0.571
  0.991
 -0.063  0.784 -0.205 -0.062  0.579
    occupation matrix before diagonalization:
  0.969 -0.001 -0.001  0.000 -0.002
 -0.001  0.990 -0.000 -0.001  0.000
 -0.001 -0.000  0.990  0.001  0.000
  0.000 -0.001  0.001  0.969 -0.000
 -0.002  0.000  0.000 -0.000  0.990
 Atom:    3   Spin:  2
    eigenvalues and eigenvectors of the occupation matrix:
  0.779
  0.707  0.707  0.000
  0.779
 -0.408  0.408 -0.816
  0.781
 -0.577  0.577  0.577
    occupation matrix before diagonalization:
  0.780 -0.001 -0.001
 -0.001  0.780  0.001
 -0.001  0.001  0.780
 Atom:    4   Spin:  2
    eigenvalues and eigenvectors of the occupation matrix:
  0.779
  0.639  0.760 -0.121
  0.779
 -0.509  0.299 -0.807
  0.781
 -0.577  0.577  0.577
    occupation matrix before diagonalization:
  0.780 -0.001 -0.001
 -0.001  0.780  0.001
 -0.001  0.001  0.780
atom    1   Tr[ns(na)]=   7.3901033
atom    1   Mag[ns(na)]=   2.4273288
atom    2   Tr[ns(na)]=   7.3900997
atom    2   Mag[ns(na)]=  -2.4273326
atom    3   Tr[ns(na)]=   4.6789836
atom    3   Mag[ns(na)]=   0.0000000
atom    4   Tr[ns(na)]=   4.6789836
atom    4   Mag[ns(na)]=   0.0000000
 --- exit write_nsg ---
 Atomic wfc used for LDA+U Projector are orthogonalized
     Starting wfcs are   34 atomic wfcs
     Checking if some PAW data can be deallocated... 

     Band Structure Calculation
     Davidson diagonalization with overlap

     ethr =  1.00E-11,  avg # of iterations = 15.3

     total cpu time spent up to now is       -1.0 secs

     End of band structure calculation

 ------ SPIN UP ------------


          k = 0.0000 0.0000 0.0000 (   923 PWs)   bands (ev):

   -82.8987 -79.7288 -46.3073 -46.3073 -46.2488 -43.2494 -43.2494 -43.2227
    -6.5111  -5.2292   5.5447   8.0243   8.0243  10.5227  10.5227  10.5496
    10.8696  10.8696  11.0664  11.7280  11.7280  13.3017  13.3017  13.5441
    14.6126  15.4221  15.4221  18.5132

          k =-0.7439 0.2473 0.2473 (   906 PWs)   bands (ev):

   -82.8964 -79.7261 -46.3353 -46.3147 -46.2448 -43.2831 -43.2580 -43.2180
    -5.2472  -5.2327   6.4614   6.6419   7.7022   8.1584   8.2671   8.8869
    10.7783  11.3766  11.7033  12.5011  12.6866  12.7975  13.8375  13.9797
    15.0372  15.0382  20.4892  20.7678

          k = 0.4959-0.1649-0.1649 (   913 PWs)   bands (ev):

   -82.8970 -79.7267 -46.3284 -46.3128 -46.2460 -43.2747 -43.2559 -43.2193
    -5.6843  -5.1426   6.8338   6.9705   7.4108   8.2360   8.7003   9.1040
    10.8229  11.3696  11.6834  12.2762  12.4408  12.9591  13.7587  13.8648
    14.8304  15.1081  18.8112  22.0108

          k =-0.2480 0.0824 0.0824 (   920 PWs)   bands (ev):

   -82.8981 -79.7281 -46.3145 -46.3090 -46.2479 -43.2580 -43.2515 -43.2216
    -6.2564  -5.1987   5.9926   7.8542   8.1111   8.6931   9.7338   9.7640
    10.9176  11.2876  11.3644  11.9715  12.3347  13.2386  13.4669  13.5908
    14.8078  15.3047  16.2795  20.0065

          k = 0.3311 0.3311-0.3297 (   921 PWs)   bands (ev):

   -82.8970 -79.7267 -46.3284 -46.3132 -46.2461 -43.2746 -43.2561 -43.2194
    -5.6066  -5.2252   6.4701   6.7816   8.1482   8.3303   8.6217   8.9693
    10.7384  11.3637  11.5184  12.4459  12.5762  13.0290  13.7615  13.8022
    15.1666  15.2318  18.1339  20.4072

          k =-0.4128 0.5784-0.0824 (   917 PWs)   bands (ev):

   -82.8964 -79.7261 -46.3319 -46.3182 -46.2450 -43.2789 -43.2623 -43.2181
    -5.3536  -5.1296   6.4858   7.1561   7.6212   8.0956   8.1726   8.3399
    11.1396  11.4260  11.6399  12.1799  12.3879  13.2105  13.7235  13.9252
    14.8049  15.3999  20.1041  21.7109

          k =-0.6608 0.6608 0.0000 (   908 PWs)   bands (ev):

   -82.8961 -79.7257 -46.3271 -46.3271 -46.2444 -43.2731 -43.2731 -43.2174
    -5.1506  -5.1504   6.7193   6.8646   7.3837   7.6745   8.2075   8.4006
    11.2867  11.4318  11.4722  12.2438  12.4791  13.6123  13.6794  13.7243
    15.0245  15.1912  21.9082  21.9890

          k =-1.4047 0.9081 0.2473 (   921 PWs)   bands (ev):

   -82.8973 -79.7271 -46.3238 -46.3131 -46.2466 -43.2691 -43.2563 -43.2200
    -5.8068  -5.1904   6.6633   7.2255   7.8471   8.1997   8.7359   9.0595
    11.0449  11.3852  11.5206  12.0501  12.4729  13.3403  13.4344  13.8449
    14.8217  15.1138  18.2025  21.2953

          k = 0.1662 0.1662 0.1662 (   939 PWs)   bands (ev):

   -82.8988 -79.7288 -46.3076 -46.3076 -46.2492 -43.2496 -43.2496 -43.2232
    -6.2275  -5.5922   6.4818   8.3117   8.3117   8.7093   9.6141   9.6141
    10.9210  10.9210  11.2854  12.6019  12.6019  13.2290  13.2290  13.3314
    15.1079  15.1079  16.1967  18.1433

          k =-0.5777 0.4135 0.4135 (   913 PWs)   bands (ev):

   -82.8965 -79.7261 -46.3357 -46.3147 -46.2452 -43.2833 -43.2581 -43.2182
    -5.2495  -5.2215   5.6796   6.8016   8.0545   8.1073   8.9294   9.1861
    10.4309  11.3630  11.6190  12.2796  12.3866  13.0793  13.8458  13.9659
    15.4008  15.4094  18.9961  19.8723

          k =-0.8257 0.4959 0.4959 (   898 PWs)   bands (ev):

   -82.8970 -79.7267 -46.3280 -46.3125 -46.2458 -43.2744 -43.2556 -43.2192
    -5.4965  -5.3362   6.2214   6.7767   8.1588   8.1734   9.3324   9.3807
    10.4030  11.3909  11.5854  12.0235  12.1592  13.1935  13.7398  13.8516
    14.6934  15.4587  19.6261  19.7199

          k =-1.5696 0.7432 0.7432 (   921 PWs)   bands (ev):

   -82.8982 -79.7281 -46.3145 -46.3092 -46.2479 -43.2580 -43.2516 -43.2217
    -6.0847  -5.4101   6.4200   7.9268   8.2988   8.4078   9.2154   9.4385
    10.9575  11.1137  11.4281  12.2388  12.5822  13.1173  13.5618  13.5841
    14.8980  14.9739  16.9139  19.5316

          k =-0.1649-0.1649 0.4959 (   913 PWs)   bands (ev):

   -82.8970 -79.7267 -46.3284 -46.3128 -46.2460 -43.2747 -43.2559 -43.2193
    -5.6843  -5.1426   6.8338   6.9705   7.4108   8.2360   8.7003   9.1040
    10.8229  11.3696  11.6834  12.2762  12.4408  12.9591  13.7587  13.8648
    14.8304  15.1081  18.8112  22.0108

          k =-0.9088 0.0824 0.7432 (   909 PWs)   bands (ev):

   -82.8964 -79.7261 -46.3319 -46.3180 -46.2450 -43.2789 -43.2621 -43.2181
    -5.3018  -5.1761   6.0516   6.9278   8.0021   8.1429   8.2817   8.7656
    10.9444  11.3497  11.5376  12.3052  12.4671  13.3241  13.6912  13.9164
    15.0007  15.4132  19.5873  20.6126

          k =-0.3297 0.3311 0.3311 (   921 PWs)   bands (ev):

   -82.8970 -79.7267 -46.3284 -46.3132 -46.2461 -43.2746 -43.2561 -43.2194
    -5.6066  -5.2252   6.4701   6.7816   8.1482   8.3303   8.6217   8.9693
    10.7384  11.3637  11.5184  12.4459  12.5762  13.0290  13.7615  13.8022
    15.1666  15.2318  18.1339  20.4072

          k =-1.0736 0.5784 0.5784 (   922 PWs)   bands (ev):

   -82.8982 -79.7281 -46.3145 -46.3091 -46.2480 -43.2580 -43.2515 -43.2218
    -5.9453  -5.5673   6.7215   7.5260   8.2835   8.5461   9.3442   9.4823
    10.7769  11.2172  11.6652  11.9748  12.1379  13.2861  13.4462  13.6089
    14.4131  15.3352  17.9240  18.9529

          k = 0.0000-0.6608 0.6608 (   908 PWs)   bands (ev):

   -82.8961 -79.7257 -46.3271 -46.3271 -46.2444 -43.2731 -43.2731 -43.2174
    -5.1506  -5.1504   6.7193   6.8646   7.3837   7.6745   8.2075   8.4006
    11.2867  11.4318  11.4722  12.2438  12.4791  13.6123  13.6794  13.7243
    15.0245  15.1912  21.9082  21.9890

          k =-0.7439-0.4135 0.9081 (   912 PWs)   bands (ev):

   -82.8973 -79.7271 -46.3235 -46.3133 -46.2465 -43.2688 -43.2564 -43.2200
    -5.5083  -5.5046   6.6413   6.8046   8.3643   8.5147   8.6522   9.0752
    10.9641  11.1137  11.6468  11.9216  12.4467  13.4108  13.4318  13.8723
    14.7173  15.0404  19.5092  19.6262

          k = 0.4959 0.4959-0.8257 (   898 PWs)   bands (ev):

   -82.8970 -79.7267 -46.3280 -46.3125 -46.2458 -43.2744 -43.2556 -43.2192
    -5.4965  -5.3362   6.2214   6.7767   8.1588   8.1734   9.3324   9.3807
    10.4030  11.3909  11.5854  12.0235  12.1592  13.1935  13.7398  13.8516
    14.6934  15.4587  19.6261  19.7199

          k =-0.2480 0.7432-0.5784 (   913 PWs)   bands (ev):

   -82.8964 -79.7261 -46.3321 -46.3181 -46.2450 -43.2790 -43.2622 -43.2182
    -5.2885  -5.1899   6.2918   6.6998   7.7780   8.2486   8.3642   8.7588
    10.9525  11.3936  11.5269  12.3548  12.3811  13.3176  13.7107  13.9172
    15.0149  15.1330  20.4108  20.8378

 ------ SPIN DOWN ----------


          k = 0.0000 0.0000 0.0000 (   923 PWs)   bands (ev):

   -82.8988 -79.7287 -46.3074 -46.3074 -46.2489 -43.2493 -43.2493 -43.2226
    -6.5111  -5.2292   5.5447   8.0242   8.0242  10.5227  10.5227  10.5496
    10.8695  10.8695  11.0663  11.7280  11.7280  13.3017  13.3017  13.5441
    14.6126  15.4221  15.4221  18.5132

          k =-0.7439 0.2473 0.2473 (   906 PWs)   bands (ev):

   -82.8965 -79.7260 -46.3354 -46.3147 -46.2448 -43.2830 -43.2580 -43.2179
    -5.2472  -5.2327   6.4614   6.6419   7.7022   8.1584   8.2671   8.8869
    10.7783  11.3766  11.7032  12.5010  12.6865  12.7976  13.8376  13.9798
    15.0372  15.0382  20.4892  20.7678

          k = 0.4959-0.1649-0.1649 (   913 PWs)   bands (ev):

   -82.8971 -79.7267 -46.3284 -46.3129 -46.2461 -43.2747 -43.2558 -43.2192
    -5.6843  -5.1426   6.8338   6.9705   7.4108   8.2360   8.7003   9.1040
    10.8228  11.3696  11.6833  12.2762  12.4408  12.9592  13.7588  13.8649
    14.8305  15.1081  18.8112  22.0108

          k =-0.2480 0.0824 0.0824 (   920 PWs)   bands (ev):

   -82.8982 -79.7280 -46.3146 -46.3091 -46.2480 -43.2579 -43.2514 -43.2215
    -6.2564  -5.1987   5.9926   7.8542   8.1111   8.6931   9.7338   9.7640
    10.9176  11.2876  11.3643  11.9715  12.3347  13.2386  13.4670  13.5908
    14.8079  15.3048  16.2795  20.0065

          k = 0.3311 0.3311-0.3297 (   921 PWs)   bands (ev):

   -82.8971 -79.7267 -46.3284 -46.3132 -46.2462 -43.2746 -43.2561 -43.2193
    -5.6066  -5.2252   6.4701   6.7816   8.1482   8.3303   8.6217   8.9693
    10.7384  11.3636  11.5183  12.4458  12.5762  13.0291  13.7616  13.8023
    15.1667  15.2318  18.1339  20.4072

          k =-0.4128 0.5784-0.0824 (   917 PWs)   bands (ev):

   -82.8965 -79.7260 -46.3320 -46.3183 -46.2451 -43.2789 -43.2622 -43.2181
    -5.3536  -5.1296   6.4858   7.1561   7.6212   8.0955   8.1726   8.3399
    11.1396  11.4259  11.6398  12.1798  12.3879  13.2105  13.7236  13.9252
    14.8050  15.4000  20.1041  21.7109

          k =-0.6608 0.6608 0.0000 (   908 PWs)   bands (ev):

   -82.8962 -79.7256 -46.3272 -46.3271 -46.2445 -43.2730 -43.2730 -43.2173
    -5.1506  -5.1504   6.7193   6.8646   7.3836   7.6745   8.2075   8.4006
    11.2867  11.4318  11.4722  12.2438  12.4791  13.6124  13.6794  13.7244
    15.0246  15.1913  21.9081  21.9890

          k =-1.4047 0.9081 0.2473 (   921 PWs)   bands (ev):

   -82.8974 -79.7270 -46.3239 -46.3132 -46.2467 -43.2690 -43.2562 -43.2199
    -5.8068  -5.1904   6.6633   7.2255   7.8471   8.1997   8.7359   9.0595
    11.0448  11.3851  11.5205  12.0501  12.4729  13.3404  13.4345  13.8450
    14.8218  15.1138  18.2025  21.2953

          k = 0.1662 0.1662 0.1662 (   939 PWs)   bands (ev):

   -82.8988 -79.7287 -46.3077 -46.3077 -46.2493 -43.2496 -43.2496 -43.2231
    -6.2275  -5.5922   6.4818   8.3116   8.3116   8.7093   9.6141   9.6141
    10.9210  10.9210  11.2853  12.6019  12.6019  13.2291  13.2291  13.3315
    15.1079  15.1079  16.1967  18.1433

          k =-0.5777 0.4135 0.4135 (   913 PWs)   bands (ev):

   -82.8965 -79.7260 -46.3358 -46.3148 -46.2452 -43.2832 -43.2580 -43.2181
    -5.2495  -5.2215   5.6796   6.8016   8.0545   8.1073   8.9294   9.1861
    10.4309  11.3629  11.6190  12.2796  12.3866  13.0793  13.8459  13.9660
    15.4009  15.4094  18.9960  19.8723

          k =-0.8257 0.4959 0.4959 (   898 PWs)   bands (ev):

   -82.8971 -79.7267 -46.3281 -46.3125 -46.2459 -43.2743 -43.2555 -43.2192
    -5.4965  -5.3362   6.2214   6.7767   8.1587   8.1734   9.3324   9.3807
    10.4029  11.3908  11.5853  12.0235  12.1591  13.1936  13.7399  13.8516
    14.6934  15.4587  19.6261  19.7199

          k =-1.5696 0.7432 0.7432 (   921 PWs)   bands (ev):

   -82.8982 -79.7280 -46.3146 -46.3093 -46.2479 -43.2579 -43.2516 -43.2216
    -6.0847  -5.4101   6.4200   7.9268   8.2988   8.4078   9.2154   9.4385
    10.9574  11.1137  11.4281  12.2388  12.5822  13.1173  13.5619  13.5841
    14.8981  14.9740  16.9139  19.5316

          k =-0.1649-0.1649 0.4959 (   913 PWs)   bands (ev):

   -82.8971 -79.7267 -46.3284 -46.3129 -46.2461 -43.2747 -43.2558 -43.2192
    -5.6843  -5.1426   6.8338   6.9705   7.4108   8.2360   8.7003   9.1040
    10.8228  11.3696  11.6833  12.2762  12.4408  12.9592  13.7588  13.8649
    14.8305  15.1081  18.8112  22.0108

          k =-0.9088 0.0824 0.7432 (   909 PWs)   bands (ev):

   -82.8965 -79.7260 -46.3320 -46.3180 -46.2451 -43.2788 -43.2620 -43.2180
    -5.3018  -5.1761   6.0516   6.9278   8.0021   8.1429   8.2817   8.7656
    10.9444  11.3496  11.5375  12.3052  12.4671  13.3242  13.6913  13.9165
    15.0008  15.4132  19.5873  20.6126

          k =-0.3297 0.3311 0.3311 (   921 PWs)   bands (ev):

   -82.8971 -79.7267 -46.3284 -46.3132 -46.2462 -43.2746 -43.2561 -43.2193
    -5.6066  -5.2252   6.4701   6.7816   8.1482   8.3303   8.6217   8.9693
    10.7384  11.3636  11.5183  12.4458  12.5762  13.0291  13.7616  13.8023
    15.1667  15.2318  18.1339  20.4072

          k =-1.0736 0.5784 0.5784 (   922 PWs)   bands (ev):

   -82.8982 -79.7280 -46.3146 -46.3092 -46.2480 -43.2579 -43.2514 -43.2217
    -5.9453  -5.5673   6.7215   7.5260   8.2835   8.5461   9.3442   9.4823
    10.7768  11.2171  11.6651  11.9747  12.1379  13.2861  13.4463  13.6089
    14.4131  15.3353  17.9240  18.9529

          k = 0.0000-0.6608 0.6608 (   908 PWs)   bands (ev):

   -82.8962 -79.7256 -46.3272 -46.3271 -46.2445 -43.2730 -43.2730 -43.2173
    -5.1506  -5.1504   6.7193   6.8646   7.3837   7.6745   8.2075   8.4006
    11.2867  11.4318  11.4722  12.2438  12.4791  13.6124  13.6794  13.7244
    15.0246  15.1913  21.9081  21.9890

          k =-0.7439-0.4135 0.9081 (   912 PWs)   bands (ev):

   -82.8974 -79.7270 -46.3236 -46.3133 -46.2465 -43.2687 -43.2564 -43.2199
    -5.5083  -5.5046   6.6413   6.8046   8.3643   8.5147   8.6522   9.0752
    10.9640  11.1136  11.6468  11.9216  12.4467  13.4109  13.4319  13.8723
    14.7174  15.0405  19.5092  19.6262

          k = 0.4959 0.4959-0.8257 (   898 PWs)   bands (ev):

   -82.8971 -79.7267 -46.3281 -46.3125 -46.2459 -43.2743 -43.2555 -43.2192
    -5.4965  -5.3362   6.2214   6.7767   8.1587   8.1734   9.3324   9.3807
    10.4029  11.3908  11.5853  12.0235  12.1591  13.1936  13.7399  13.8516
    14.6934  15.4587  19.6261  19.7199

          k =-0.2480 0.7432-0.5784 (   913 PWs)   bands (ev):

   -82.8965 -79.7260 -46.3322 -46.3181 -46.2451 -43.2789 -43.2621 -43.2181
    -5.2885  -5.1899   6.2918   6.6998   7.7780   8.2486   8.3642   8.7588
    10.9524  11.3935  11.5269  12.3547  12.3811  13.3176  13.7108  13.9173
    15.0149  15.1331  20.4108  20.8378

     the Fermi energy is    13.7856 ev
     (compare with:    13.7856 eV, computed in scf)

     Writing output data file ./tmp/HP/CoO.save/
     Done!

                   WRITING LINEAR-RESPONSE SUMMARY:


     Number of symmetries in the small group of q, nsymq =  4
      + the symmetry q -> -q+G 

     G cutoff =  453.9189  (   2588 G-vectors)     FFT grid: ( 54, 54, 54)
     G cutoff =  226.9595  (    922 G-vectors)  smooth grid: ( 40, 40, 40)

     Number of k (and k+q if q/=0) points =    40  Marzari-Vanderbilt smearing, width (Ry) =  0.0200

                       cart. coord. (in units 2pi/alat)
        k (    1) = (   0.0000000   0.0000000   0.0000000), wk = 0.0370370
        k (    2) = (  -0.7439034   0.2472995   0.2472995), wk = 0.0000000
        k (    3) = (   0.4959356  -0.1648663  -0.1648663), wk = 0.0740741
        k (    4) = (  -0.2479678   0.0824332   0.0824332), wk = 0.0000000
        k (    5) = (   0.3310693   0.3310693  -0.3297326), wk = 0.1481481
        k (    6) = (  -0.4128341   0.5783688  -0.0824332), wk = 0.0000000
        k (    7) = (  -0.6608019   0.6608019   0.0000000), wk = 0.1481481
        k (    8) = (  -1.4047053   0.9081014   0.2472995), wk = 0.0000000
        k (    9) = (   0.1662030   0.1662030   0.1662030), wk = 0.0740741
        k (   10) = (  -0.5777004   0.4135025   0.4135025), wk = 0.0000000
        k (   11) = (  -0.8256682   0.4959356   0.4959356), wk = 0.0740741
        k (   12) = (  -1.5695716   0.7432351   0.7432351), wk = 0.0000000
        k (   13) = (  -0.1648663  -0.1648663   0.4959356), wk = 0.1481481
        k (   14) = (  -0.9087697   0.0824332   0.7432351), wk = 0.0000000
        k (   15) = (  -0.3297326   0.3310693   0.3310693), wk = 0.0740741
        k (   16) = (  -1.0736360   0.5783688   0.5783688), wk = 0.0000000
        k (   17) = (   0.0000000  -0.6608019   0.6608019), wk = 0.0740741
        k (   18) = (  -0.7439034  -0.4135025   0.9081014), wk = 0.0000000
        k (   19) = (   0.4959356   0.4959356  -0.8256682), wk = 0.1481481
        k (   20) = (  -0.2479678   0.7432351  -0.5783688), wk = 0.0000000
        k (   21) = (   0.0000000   0.0000000   0.0000000), wk = 0.0370370
        k (   22) = (  -0.7439034   0.2472995   0.2472995), wk = 0.0000000
        k (   23) = (   0.4959356  -0.1648663  -0.1648663), wk = 0.0740741
        k (   24) = (  -0.2479678   0.0824332   0.0824332), wk = 0.0000000
        k (   25) = (   0.3310693   0.3310693  -0.3297326), wk = 0.1481481
        k (   26) = (  -0.4128341   0.5783688  -0.0824332), wk = 0.0000000
        k (   27) = (  -0.6608019   0.6608019   0.0000000), wk = 0.1481481
        k (   28) = (  -1.4047053   0.9081014   0.2472995), wk = 0.0000000
        k (   29) = (   0.1662030   0.1662030   0.1662030), wk = 0.0740741
        k (   30) = (  -0.5777004   0.4135025   0.4135025), wk = 0.0000000
        k (   31) = (  -0.8256682   0.4959356   0.4959356), wk = 0.0740741
        k (   32) = (  -1.5695716   0.7432351   0.7432351), wk = 0.0000000
        k (   33) = (  -0.1648663  -0.1648663   0.4959356), wk = 0.1481481
        k (   34) = (  -0.9087697   0.0824332   0.7432351), wk = 0.0000000
        k (   35) = (  -0.3297326   0.3310693   0.3310693), wk = 0.0740741
        k (   36) = (  -1.0736360   0.5783688   0.5783688), wk = 0.0000000
        k (   37) = (   0.0000000  -0.6608019   0.6608019), wk = 0.0740741
        k (   38) = (  -0.7439034  -0.4135025   0.9081014), wk = 0.0000000
        k (   39) = (   0.4959356   0.4959356  -0.8256682), wk = 0.1481481
        k (   40) = (  -0.2479678   0.7432351  -0.5783688), wk = 0.0000000

                       cryst. coord.
        k (    1) = (   0.0000000   0.0000000   0.0000000), wk = 0.0370370
        k (    2) = (   0.0000000   0.0000000  -0.5000000), wk = 0.0000000
        k (    3) = (  -0.0000000  -0.0000000   0.3333333), wk = 0.0740741
        k (    4) = (   0.0000000   0.0000000  -0.1666667), wk = 0.0000000
        k (    5) = (  -0.0000000   0.3333333   0.3333333), wk = 0.1481481
        k (    6) = (   0.0000000   0.3333333  -0.1666667), wk = 0.0000000
        k (    7) = (   0.0000000   0.3333333  -0.3333333), wk = 0.1481481
        k (    8) = (   0.0000000   0.3333333  -0.8333333), wk = 0.0000000
        k (    9) = (   0.3333333   0.3333333   0.3333333), wk = 0.0740741
        k (   10) = (   0.3333333   0.3333333  -0.1666667), wk = 0.0000000
        k (   11) = (   0.3333333   0.3333333  -0.3333333), wk = 0.0740741
        k (   12) = (   0.3333333   0.3333333  -0.8333333), wk = 0.0000000
        k (   13) = (   0.3333333  -0.0000000  -0.0000000), wk = 0.1481481
        k (   14) = (   0.3333333  -0.0000000  -0.5000000), wk = 0.0000000
        k (   15) = (   0.3333333   0.3333333  -0.0000000), wk = 0.0740741
        k (   16) = (   0.3333333   0.3333333  -0.5000000), wk = 0.0000000
        k (   17) = (   0.3333333  -0.3333333   0.0000000), wk = 0.0740741
        k (   18) = (   0.3333333  -0.3333333  -0.5000000), wk = 0.0000000
        k (   19) = (  -0.3333333   0.3333333   0.3333333), wk = 0.1481481
        k (   20) = (  -0.3333333   0.3333333  -0.1666667), wk = 0.0000000
        k (   21) = (   0.0000000   0.0000000   0.0000000), wk = 0.0370370
        k (   22) = (   0.0000000   0.0000000  -0.5000000), wk = 0.0000000
        k (   23) = (  -0.0000000  -0.0000000   0.3333333), wk = 0.0740741
        k (   24) = (   0.0000000   0.0000000  -0.1666667), wk = 0.0000000
        k (   25) = (  -0.0000000   0.3333333   0.3333333), wk = 0.1481481
        k (   26) = (   0.0000000   0.3333333  -0.1666667), wk = 0.0000000
        k (   27) = (   0.0000000   0.3333333  -0.3333333), wk = 0.1481481
        k (   28) = (   0.0000000   0.3333333  -0.8333333), wk = 0.0000000
        k (   29) = (   0.3333333   0.3333333   0.3333333), wk = 0.0740741
        k (   30) = (   0.3333333   0.3333333  -0.1666667), wk = 0.0000000
        k (   31) = (   0.3333333   0.3333333  -0.3333333), wk = 0.0740741
        k (   32) = (   0.3333333   0.3333333  -0.8333333), wk = 0.0000000
        k (   33) = (   0.3333333  -0.0000000  -0.0000000), wk = 0.1481481
        k (   34) = (   0.3333333  -0.0000000  -0.5000000), wk = 0.0000000
        k (   35) = (   0.3333333   0.3333333  -0.0000000), wk = 0.0740741
        k (   36) = (   0.3333333   0.3333333  -0.5000000), wk = 0.0000000
        k (   37) = (   0.3333333  -0.3333333   0.0000000), wk = 0.0740741
        k (   38) = (   0.3333333  -0.3333333  -0.5000000), wk = 0.0000000
        k (   39) = (  -0.3333333   0.3333333   0.3333333), wk = 0.1481481
        k (   40) = (  -0.3333333   0.3333333  -0.1666667), wk = 0.0000000

     Atomic wfc used for the projector on the Hubbard manifold are orthogonalized

     Total time spent up to now is:
     HP           :     31.24s CPU     35.86s WALL

      =--------------------------------------------=
             START SOLVING THE LINEAR SYSTEM
      =--------------------------------------------=

      atom #  1   q point #   2   iter #   1
      chi:   1  -3.1171168084
      chi:   2  -0.0000000000
      chi:   3  -0.0214857458
      chi:   4   0.0214857458
      Average number of iter. to solve lin. system:   39.4
      Total CPU time :    40.3 s

      atom #  1   q point #   2   iter #   2
      chi:   1  45.5888346804   residue:   48.7059514889
      chi:   2  -0.0000000000   residue:    0.0000000000
      chi:   3   0.6033336271   residue:    0.6248193729
      chi:   4  -0.6033336271   residue:    0.6248193729
      Average number of iter. to solve lin. system:   16.6
      Total CPU time :    42.7 s

      atom #  1   q point #   2   iter #   3
      chi:   1  -0.3282822286   residue:   45.9171169090
      chi:   2   0.0000000000   residue:    0.0000000000
      chi:   3  -0.0002210290   residue:    0.6035546561
      chi:   4   0.0002210290   residue:    0.6035546561
      Average number of iter. to solve lin. system:   12.7
      Total CPU time :    44.7 s

      atom #  1   q point #   2   iter #   4
      chi:   1  -0.2888304508   residue:    0.0394517779
      chi:   2  -0.0000000000   residue:    0.0000000000
      chi:   3   0.0064243576   residue:    0.0066453866
      chi:   4  -0.0064243576   residue:    0.0066453866
      Average number of iter. to solve lin. system:   13.6
      Total CPU time :    46.8 s

      atom #  1   q point #   2   iter #   5
      chi:   1  -0.2169676423   residue:    0.0718628084
      chi:   2  -0.0000000000   residue:    0.0000000000
      chi:   3   0.0053729920   residue:    0.0010513656
      chi:   4  -0.0053729920   residue:    0.0010513656
      Average number of iter. to solve lin. system:   10.7
      Total CPU time :    48.6 s

      atom #  1   q point #   2   iter #   6
      chi:   1  -0.1539148103   residue:    0.0630528321
      chi:   2  -0.0000000000   residue:    0.0000000000
      chi:   3   0.0063144909   residue:    0.0009414989
      chi:   4  -0.0063144909   residue:    0.0009414989
      Average number of iter. to solve lin. system:   12.6
      Total CPU time :    50.6 s

      atom #  1   q point #   2   iter #   7
      chi:   1  -0.1525994797   residue:    0.0013153306
      chi:   2   0.0000000000   residue:    0.0000000000
      chi:   3   0.0063387465   residue:    0.0000242557
      chi:   4  -0.0063387465   residue:    0.0000242557
      Average number of iter. to solve lin. system:   13.1
      Total CPU time :    52.6 s

      atom #  1   q point #   2   iter #   8
      chi:   1  -0.1487280703   residue:    0.0038714094
      chi:   2   0.0000000000   residue:    0.0000000000
      chi:   3   0.0064129201   residue:    0.0000741736
      chi:   4  -0.0064129201   residue:    0.0000741736
      Average number of iter. to solve lin. system:   14.2
      Total CPU time :    54.8 s

      atom #  1   q point #   2   iter #   9
      chi:   1  -0.1486312367   residue:    0.0000968335
      chi:   2   0.0000000000   residue:    0.0000000000
      chi:   3   0.0064337305   residue:    0.0000208104
      chi:   4  -0.0064337305   residue:    0.0000208104
      Average number of iter. to solve lin. system:   14.9
      Total CPU time :    57.0 s

      atom #  1   q point #   2   iter #  10
      chi:   1  -0.1475010351   residue:    0.0011302016
      chi:   2   0.0000000000   residue:    0.0000000000
      chi:   3   0.0064582455   residue:    0.0000245150
      chi:   4  -0.0064582455   residue:    0.0000245150
      Average number of iter. to solve lin. system:   14.4
      Total CPU time :    59.2 s

      atom #  1   q point #   2   iter #  11
      chi:   1  -0.1475480446   residue:    0.0000470095
      chi:   2   0.0000000000   residue:    0.0000000000
      chi:   3   0.0064607055   residue:    0.0000024600
      chi:   4  -0.0064607055   residue:    0.0000024600
      Average number of iter. to solve lin. system:   14.1
      Total CPU time :    61.3 s

      atom #  1   q point #   2   iter #  12
      chi:   1  -0.1476989399   residue:    0.0001508953
      chi:   2  -0.0000000000   residue:    0.0000000000
      chi:   3   0.0064585796   residue:    0.0000021259
      chi:   4  -0.0064585796   residue:    0.0000021259
      Average number of iter. to solve lin. system:   13.8
      Total CPU time :    63.4 s

      atom #  1   q point #   2   iter #  13
      chi:   1  -0.1477670185   residue:    0.0000680786
      chi:   2  -0.0000000000   residue:    0.0000000000
      chi:   3   0.0064580934   residue:    0.0000004862
      chi:   4  -0.0064580934   residue:    0.0000004862
      Average number of iter. to solve lin. system:   13.7
      Total CPU time :    65.5 s

      atom #  1   q point #   2   iter #  14
      chi:   1  -0.1477497684   residue:    0.0000172501
      chi:   2  -0.0000000000   residue:    0.0000000000
      chi:   3   0.0064568982   residue:    0.0000011952
      chi:   4  -0.0064568982   residue:    0.0000011952
      Average number of iter. to solve lin. system:   15.7
      Total CPU time :    67.8 s

      atom #  1   q point #   2   iter #  15
      chi:   1  -0.1477777236   residue:    0.0000279552
      chi:   2   0.0000000000   residue:    0.0000000000
      chi:   3   0.0064564696   residue:    0.0000004286
      chi:   4  -0.0064564696   residue:    0.0000004286
      Average number of iter. to solve lin. system:   14.9
      Total CPU time :    70.0 s

      atom #  1   q point #   2   iter #  16
      chi:   1  -0.1477806000   residue:    0.0000028765
      chi:   2  -0.0000000000   residue:    0.0000000000
      chi:   3   0.0064566594   residue:    0.0000001897
      chi:   4  -0.0064566594   residue:    0.0000001897
      Average number of iter. to solve lin. system:   16.8
      Total CPU time :    72.4 s

      atom #  1   q point #   2   iter #  17
      chi:   1  -0.1477800939   residue:    0.0000005062
      chi:   2  -0.0000000000   residue:    0.0000000000
      chi:   3   0.0064566757   residue:    0.0000000163
      chi:   4  -0.0064566757   residue:    0.0000000163
      Average number of iter. to solve lin. system:   13.7
      Total CPU time :    74.5 s
      
      =--------------------------------------------=
             CONVERGENCE HAS BEEN REACHED
      =--------------------------------------------=


     =-------------------------------------------------------------=

     Calculation for q #   3 = (  -0.4966040  -0.4966040   0.4945989 )

     =-------------------------------------------------------------=

     Performing NSCF calculation at all points k and k+q...
 
     Parallelization info
     --------------------
     sticks:   dense  smooth     PW     G-vecs:    dense   smooth      PW
     Min         150      74     28                 2587      920     212
     Max         151      75     29                 2588      922     214
     Sum        1201     597    227                20701     7367    1701
 


     bravais-lattice index     =            0
     lattice parameter (alat)  =       8.0000  a.u.
     unit-cell volume          =     261.2912 (a.u.)^3
     number of atoms/cell      =            4
     number of atomic types    =            3
     number of electrons       =        46.00
     number of Kohn-Sham states=           28
     kinetic-energy cutoff     =      35.0000  Ry
     charge density cutoff     =     280.0000  Ry
     Exchange-correlation= PBESOL
                           (   1   4  10   8   0   0   0)

     celldm(1)=   8.000000  celldm(2)=   0.000000  celldm(3)=   0.000000
     celldm(4)=   0.000000  celldm(5)=   0.000000  celldm(6)=   0.000000

     crystal axes: (cart. coord. in units of alat)
               a(1) = (   0.500381   0.500381   1.004818 )  
               a(2) = (   0.500381   1.004818   0.500381 )  
               a(3) = (   1.004818   0.500381   0.500381 )  

     reciprocal axes: (cart. coord. in units 2 pi/alat)
               b(1) = ( -0.494599 -0.494599  1.487807 )  
               b(2) = ( -0.494599  1.487807 -0.494599 )  
               b(3) = (  1.487807 -0.494599 -0.494599 )  


     PseudoPot. # 1 for Co read from file:
     ../files/pseudo/co_pbesol_v1.2.uspp.F.UPF
     MD5 check sum: 3b4cd4e7cc7df4da9fdede0fd33e2193
     Pseudo is Ultrasoft + core correction, Zval = 17.0
     Generated by new atomic code, or converted to UPF format
     Using radial grid of  863 points,  6 beta functions with: 
                l(1) =   0
                l(2) =   0
                l(3) =   1
                l(4) =   1
                l(5) =   2
                l(6) =   2
     Q(r) pseudized with  8 coefficients,  rinner =    1.200   1.200   1.200
                                                       1.200   1.200

     PseudoPot. # 2 for Co read from file:
     ../files/pseudo/co_pbesol_v1.2.uspp.F.UPF
     MD5 check sum: 3b4cd4e7cc7df4da9fdede0fd33e2193
     Pseudo is Ultrasoft + core correction, Zval = 17.0
     Generated by new atomic code, or converted to UPF format
     Using radial grid of  863 points,  6 beta functions with: 
                l(1) =   0
                l(2) =   0
                l(3) =   1
                l(4) =   1
                l(5) =   2
                l(6) =   2
     Q(r) pseudized with  8 coefficients,  rinner =    1.200   1.200   1.200
                                                       1.200   1.200

     PseudoPot. # 3 for O  read from file:
     ../files/pseudo/O.pbesol-n-kjpaw_psl.0.1.UPF
     MD5 check sum: 126339daddaa87477ab44acfa0b5aa00
     Pseudo is Projector augmented-wave + core cor, Zval =  6.0
     Generated using "atomic" code by A. Dal Corso  v.6.0 svn rev. 13079
     Shape of augmentation charge: BESSEL
     Using radial grid of 1095 points,  4 beta functions with: 
                l(1) =   0
                l(2) =   0
                l(3) =   1
                l(4) =   1
     Q(r) pseudized with 0 coefficients 


     atomic species   valence    mass     pseudopotential
        Co1           17.00    58.93319     Co( 1.00)
        Co2           17.00    58.93319     Co( 1.00)
        O              6.00    15.99900     O ( 1.00)

     Starting magnetic structure 
     atomic species   magnetization
        Co1          0.500
        Co2         -0.500
        O            0.000



     12 Sym. Ops., with inversion, found



   Cartesian axes

     site n.     atom                  positions (alat units)
         1           Co1 tau(   1) = (   0.0000000   0.0000000   0.0000000  )
         2           Co2 tau(   2) = (   1.0027898   1.0027898   1.0027898  )
         3           O   tau(   3) = (   0.5013949   0.5013949   0.5013949  )
         4           O   tau(   4) = (   1.5041847   1.5041847   1.5041847  )

     number of k points=    20  Marzari-Vanderbilt smearing, width (Ry)=  0.0200
                       cart. coord. in units 2pi/alat
        k(    1) = (   0.0000000   0.0000000   0.0000000), wk =   0.0370370
        k(    2) = (  -0.4966040  -0.4966040   0.4945989), wk =   0.0000000
        k(    3) = (   0.4959356  -0.1648663  -0.1648663), wk =   0.1481481
        k(    4) = (  -0.0006683  -0.6614703   0.3297326), wk =   0.0000000
        k(    5) = (   0.3310693   0.3310693  -0.3297326), wk =   0.0740741
        k(    6) = (  -0.1655347  -0.1655347   0.1648663), wk =   0.0000000
        k(    7) = (  -0.6608019   0.6608019   0.0000000), wk =   0.0740741
        k(    8) = (  -1.1574059   0.1641980   0.4945989), wk =   0.0000000
        k(    9) = (   0.1662030   0.1662030   0.1662030), wk =   0.0740741
        k(   10) = (  -0.3304010  -0.3304010   0.6608019), wk =   0.0000000
        k(   11) = (  -0.8256682   0.4959356   0.4959356), wk =   0.1481481
        k(   12) = (  -1.3222722  -0.0006683   0.9905345), wk =   0.0000000
        k(   13) = (  -0.1648663  -0.1648663   0.4959356), wk =   0.0740741
        k(   14) = (  -0.6614703  -0.6614703   0.9905345), wk =   0.0000000
        k(   15) = (   0.3310693  -0.3297326   0.3310693), wk =   0.1481481
        k(   16) = (  -0.1655347  -0.8263366   0.8256682), wk =   0.0000000
        k(   17) = (   0.6608019   0.0000000  -0.6608019), wk =   0.1481481
        k(   18) = (   0.1641980  -0.4966040  -0.1662030), wk =   0.0000000
        k(   19) = (   0.4959356   0.4959356  -0.8256682), wk =   0.0740741
        k(   20) = (  -0.0006683  -0.0006683  -0.3310693), wk =   0.0000000

     Dense  grid:    20701 G-vectors     FFT dimensions: (  54,  54,  54)

     Smooth grid:     7367 G-vectors     FFT dimensions: (  40,  40,  40)

     Estimated max dynamical RAM per process >      14.39 MB

     Estimated total dynamical RAM >     115.10 MB

     Check: negative core charge=   -0.000039

     The potential is recalculated from file :
     ./tmp/HP/CoO.save/charge-density

     Number of +U iterations with fixed ns =  0
     Starting occupations:
 --- enter write_nsg ---
 Atom:    1   Spin:  1
    eigenvalues and eigenvectors of the occupation matrix:
  0.969
  0.892  0.004  0.060 -0.443  0.065
  0.969
  0.443  0.072 -0.040  0.892  0.032
  0.990
  0.000  0.577  0.577  0.000 -0.577
  0.991
  0.057  0.280 -0.801 -0.068 -0.521
  0.991
  0.068 -0.764  0.139  0.057 -0.624
    occupation matrix before diagonalization:
  0.969 -0.001 -0.001  0.000 -0.002
 -0.001  0.990 -0.000 -0.001  0.000
 -0.001 -0.000  0.990  0.001  0.000
  0.000 -0.001  0.001  0.969 -0.000
 -0.002  0.000  0.000 -0.000  0.990
 Atom:    2   Spin:  1
    eigenvalues and eigenvectors of the occupation matrix:
  0.231
 -0.196 -0.045  0.036 -0.979 -0.009
  0.231
 -0.979 -0.015 -0.031  0.196 -0.047
  0.652
 -0.000  0.577  0.577  0.000 -0.577
  0.684
  0.042  0.203 -0.785 -0.041 -0.582
  0.684
 -0.041  0.789 -0.219 -0.042  0.570
    occupation matrix before diagonalization:
  0.232 -0.011 -0.011  0.000 -0.022
 -0.011  0.672 -0.010 -0.019  0.010
 -0.011 -0.010  0.672  0.019  0.010
  0.000 -0.019  0.019  0.232 -0.000
 -0.022  0.010  0.010 -0.000  0.672
 Atom:    3   Spin:  1
    eigenvalues and eigenvectors of the occupation matrix:
  0.779
  0.733  0.679  0.054
  0.779
 -0.360  0.454 -0.815
  0.781
 -0.577  0.577  0.577
    occupation matrix before diagonalization:
  0.780 -0.001 -0.001
 -0.001  0.780  0.001
 -0.001  0.001  0.780
 Atom:    4   Spin:  1
    eigenvalues and eigenvectors of the occupation matrix:
  0.779
  0.733  0.679  0.054
  0.779
 -0.361  0.454 -0.815
  0.781
 -0.577  0.577  0.577
    occupation matrix before diagonalization:
  0.780 -0.001 -0.001
 -0.001  0.780  0.001
 -0.001  0.001  0.780
 Atom:    1   Spin:  2
    eigenvalues and eigenvectors of the occupation matrix:
  0.231
  0.396 -0.028  0.047 -0.916  0.019
  0.231
 -0.916 -0.038 -0.005 -0.396 -0.044
  0.652
 -0.000  0.577  0.577  0.000 -0.577
  0.684
 -0.032 -0.360  0.813  0.048  0.453
  0.684
 -0.048  0.731 -0.054 -0.032  0.677
    occupation matrix before diagonalization:
  0.232 -0.011 -0.011  0.000 -0.022
 -0.011  0.672 -0.010 -0.019  0.010
 -0.011 -0.010  0.672  0.019  0.010
  0.000 -0.019  0.019  0.232 -0.000
 -0.022  0.010  0.010 -0.000  0.672
 Atom:    2   Spin:  2
    eigenvalues and eigenvectors of the occupation matrix:
  0.969
 -0.935 -0.012 -0.056  0.344 -0.068
  0.969
  0.344  0.071 -0.046  0.935  0.025
  0.990
  0.000  0.577  0.577  0.000 -0.577
  0.991
  0.062  0.216 -0.787 -0.063 -0.571
  0.991
 -0.063  0.784 -0.205 -0.062  0.579
    occupation matrix before diagonalization:
  0.969 -0.001 -0.001  0.000 -0.002
 -0.001  0.990 -0.000 -0.001  0.000
 -0.001 -0.000  0.990  0.001  0.000
  0.000 -0.001  0.001  0.969 -0.000
 -0.002  0.000  0.000 -0.000  0.990
 Atom:    3   Spin:  2
    eigenvalues and eigenvectors of the occupation matrix:
  0.779
  0.707  0.707  0.000
  0.779
 -0.408  0.408 -0.816
  0.781
 -0.577  0.577  0.577
    occupation matrix before diagonalization:
  0.780 -0.001 -0.001
 -0.001  0.780  0.001
 -0.001  0.001  0.780
 Atom:    4   Spin:  2
    eigenvalues and eigenvectors of the occupation matrix:
  0.779
  0.639  0.760 -0.121
  0.779
 -0.509  0.299 -0.807
  0.781
 -0.577  0.577  0.577
    occupation matrix before diagonalization:
  0.780 -0.001 -0.001
 -0.001  0.780  0.001
 -0.001  0.001  0.780
atom    1   Tr[ns(na)]=   7.3901033
atom    1   Mag[ns(na)]=   2.4273288
atom    2   Tr[ns(na)]=   7.3900997
atom    2   Mag[ns(na)]=  -2.4273326
atom    3   Tr[ns(na)]=   4.6789836
atom    3   Mag[ns(na)]=   0.0000000
atom    4   Tr[ns(na)]=   4.6789836
atom    4   Mag[ns(na)]=   0.0000000
 --- exit write_nsg ---
 Atomic wfc used for LDA+U Projector are orthogonalized
     Starting wfcs are   34 atomic wfcs
     Checking if some PAW data can be deallocated... 

     Band Structure Calculation
     Davidson diagonalization with overlap

     ethr =  1.00E-11,  avg # of iterations = 15.6

     total cpu time spent up to now is       -1.0 secs

     End of band structure calculation

 ------ SPIN UP ------------


          k = 0.0000 0.0000 0.0000 (   923 PWs)   bands (ev):

   -82.8987 -79.7288 -46.3073 -46.3073 -46.2488 -43.2494 -43.2494 -43.2227
    -6.5111  -5.2292   5.5447   8.0243   8.0243  10.5227  10.5227  10.5496
    10.8696  10.8696  11.0664  11.7280  11.7280  13.3017  13.3017  13.5441
    14.6126  15.4221  15.4221  18.5132

          k =-0.4966-0.4966 0.4946 (   924 PWs)   bands (ev):

   -82.8965 -79.7261 -46.3358 -46.3149 -46.2456 -43.2835 -43.2582 -43.2185
    -5.2497  -5.2185   5.5387   6.7796   8.0656   8.1027   9.2786   9.3158
    10.2034  11.3552  11.5924  12.1548  12.3806  13.1477  13.8473  13.9598
    15.5052  15.5712  18.5417  19.6442

          k = 0.4959-0.1649-0.1649 (   913 PWs)   bands (ev):

   -82.8970 -79.7267 -46.3284 -46.3128 -46.2460 -43.2747 -43.2559 -43.2193
    -5.6843  -5.1426   6.8338   6.9705   7.4108   8.2360   8.7003   9.1040
    10.8229  11.3696  11.6834  12.2762  12.4408  12.9591  13.7587  13.8648
    14.8304  15.1081  18.8112  22.0108

          k =-0.0007-0.6615 0.3297 (   911 PWs)   bands (ev):

   -82.8964 -79.7261 -46.3319 -46.3180 -46.2448 -43.2789 -43.2622 -43.2180
    -5.3340  -5.1478   6.6397   6.7290   7.6459   8.1862   8.3157   8.4341
    11.0875  11.4327  11.6035  12.2127  12.3967  13.2455  13.7188  13.9241
    14.9534  15.1476  20.3992  22.0119

          k = 0.3311 0.3311-0.3297 (   921 PWs)   bands (ev):

   -82.8970 -79.7267 -46.3284 -46.3132 -46.2461 -43.2746 -43.2561 -43.2194
    -5.6066  -5.2252   6.4701   6.7816   8.1482   8.3303   8.6217   8.9693
    10.7384  11.3637  11.5184  12.4459  12.5762  13.0290  13.7615  13.8022
    15.1666  15.2318  18.1339  20.4072

          k =-0.1655-0.1655 0.1649 (   919 PWs)   bands (ev):

   -82.8982 -79.7281 -46.3145 -46.3090 -46.2479 -43.2579 -43.2515 -43.2216
    -6.2316  -5.2307   6.0618   7.8675   8.2155   8.6786   9.5220   9.5644
    10.9894  11.1568  11.3025  12.3722  12.4445  13.1428  13.5266  13.6024
    15.0124  15.0859  16.1892  19.9429

          k =-0.6608 0.6608 0.0000 (   908 PWs)   bands (ev):

   -82.8961 -79.7257 -46.3271 -46.3271 -46.2444 -43.2731 -43.2731 -43.2174
    -5.1506  -5.1504   6.7193   6.8646   7.3837   7.6745   8.2075   8.4006
    11.2867  11.4318  11.4722  12.2438  12.4791  13.6123  13.6794  13.7243
    15.0245  15.1912  21.9082  21.9890

          k =-1.1574 0.1642 0.4946 (   919 PWs)   bands (ev):

   -82.8973 -79.7271 -46.3238 -46.3130 -46.2464 -43.2691 -43.2562 -43.2198
    -5.8520  -5.1399   6.7249   7.3682   7.6325   8.1827   8.7036   9.0181
    11.0946  11.4981  11.5010  11.9722  12.5258  13.3200  13.4369  13.8326
    14.8479  15.1970  17.9378  21.9690

          k = 0.1662 0.1662 0.1662 (   939 PWs)   bands (ev):

   -82.8988 -79.7288 -46.3076 -46.3076 -46.2492 -43.2496 -43.2496 -43.2232
    -6.2275  -5.5922   6.4818   8.3117   8.3117   8.7093   9.6141   9.6141
    10.9210  10.9210  11.2854  12.6019  12.6019  13.2290  13.2290  13.3314
    15.1079  15.1079  16.1967  18.1433

          k =-0.3304-0.3304 0.6608 (   908 PWs)   bands (ev):

   -82.8964 -79.7261 -46.3356 -46.3146 -46.2448 -43.2833 -43.2580 -43.2180
    -5.2485  -5.2284   6.0614   6.8017   7.8775   8.2037   8.3623   8.9962
    10.6891  11.3733  11.6735  12.4331  12.5443  12.9170  13.8408  13.9753
    15.1492  15.1691  19.9502  20.4001

          k =-0.8257 0.4959 0.4959 (   898 PWs)   bands (ev):

   -82.8970 -79.7267 -46.3280 -46.3125 -46.2458 -43.2744 -43.2556 -43.2192
    -5.4965  -5.3362   6.2214   6.7767   8.1588   8.1734   9.3324   9.3807
    10.4030  11.3909  11.5854  12.0235  12.1592  13.1935  13.7398  13.8516
    14.6934  15.4587  19.6261  19.7199

          k =-1.3223-0.0007 0.9905 (   913 PWs)   bands (ev):

   -82.8964 -79.7261 -46.3319 -46.3181 -46.2450 -43.2789 -43.2622 -43.2181
    -5.3416  -5.1397   6.2365   7.1088   7.9619   8.0960   8.2112   8.3565
    11.0985  11.3939  11.5790  12.2845  12.3565  13.2546  13.7096  13.9224
    14.8362  15.5374  19.7010  21.1202

          k =-0.1649-0.1649 0.4959 (   913 PWs)   bands (ev):

   -82.8970 -79.7267 -46.3284 -46.3128 -46.2460 -43.2747 -43.2559 -43.2193
    -5.6843  -5.1426   6.8338   6.9705   7.4108   8.2360   8.7003   9.1040
    10.8229  11.3696  11.6834  12.2762  12.4408  12.9591  13.7587  13.8648
    14.8304  15.1081  18.8112  22.0108

          k =-0.6615-0.6615 0.9905 (   920 PWs)   bands (ev):

   -82.8982 -79.7281 -46.3144 -46.3092 -46.2479 -43.2579 -43.2516 -43.2218
    -5.8452  -5.6744   6.9367   7.3652   8.4604   8.6826   9.0450   9.1726
    10.8658  11.1417  11.6267  12.0298  12.4629  13.1914  13.5143  13.5745
    14.6395  15.1173  17.9410  18.8171

          k = 0.3311-0.3297 0.3311 (   921 PWs)   bands (ev):

   -82.8970 -79.7267 -46.3284 -46.3132 -46.2461 -43.2746 -43.2561 -43.2194
    -5.6066  -5.2252   6.4701   6.7816   8.1482   8.3303   8.6217   8.9693
    10.7384  11.3637  11.5184  12.4459  12.5762  13.0290  13.7615  13.8022
    15.1666  15.2318  18.1339  20.4072

          k =-0.1655-0.8263 0.8257 (   911 PWs)   bands (ev):

   -82.8965 -79.7261 -46.3321 -46.3180 -46.2452 -43.2790 -43.2621 -43.2182
    -5.2463  -5.2302   6.0555   6.7819   7.9020   8.2009   8.3679   8.9634
    10.8431  11.3421  11.5235  12.3376  12.4889  13.3524  13.6965  13.9132
    15.0882  15.2092  19.9570  20.4013

          k = 0.6608 0.0000-0.6608 (   908 PWs)   bands (ev):

   -82.8961 -79.7257 -46.3271 -46.3271 -46.2444 -43.2731 -43.2731 -43.2174
    -5.1506  -5.1504   6.7193   6.8646   7.3837   7.6745   8.2075   8.4006
    11.2867  11.4318  11.4722  12.2438  12.4791  13.6123  13.6794  13.7243
    15.0245  15.1912  21.9082  21.9890

          k = 0.1642-0.4966-0.1662 (   910 PWs)   bands (ev):

   -82.8973 -79.7271 -46.3235 -46.3130 -46.2464 -43.2689 -43.2562 -43.2199
    -5.6816  -5.3260   6.6155   6.9629   8.2614   8.3129   8.6616   9.1434
    10.9587  11.2202  11.5836  12.0314  12.4284  13.3850  13.4374  13.8685
    14.7250  15.0677  18.8114  20.4231

          k = 0.4959 0.4959-0.8257 (   898 PWs)   bands (ev):

   -82.8970 -79.7267 -46.3280 -46.3125 -46.2458 -43.2744 -43.2556 -43.2192
    -5.4965  -5.3362   6.2214   6.7767   8.1588   8.1734   9.3324   9.3807
    10.4030  11.3909  11.5854  12.0235  12.1592  13.1935  13.7398  13.8516
    14.6934  15.4587  19.6261  19.7199

          k =-0.0007-0.0007-0.3311 (   920 PWs)   bands (ev):

   -82.8981 -79.7281 -46.3145 -46.3092 -46.2478 -43.2580 -43.2515 -43.2216
    -6.1542  -5.3263   6.2352   7.9360   8.1368   8.3348   9.7566   9.8184
    10.7765  11.3418  11.5426  11.8340  12.0617  13.3118  13.4303  13.5953
    14.4972  15.4168  17.0099  19.6918

 ------ SPIN DOWN ----------


          k = 0.0000 0.0000 0.0000 (   923 PWs)   bands (ev):

   -82.8988 -79.7287 -46.3074 -46.3074 -46.2489 -43.2493 -43.2493 -43.2226
    -6.5111  -5.2292   5.5447   8.0242   8.0242  10.5227  10.5227  10.5496
    10.8695  10.8695  11.0663  11.7280  11.7280  13.3017  13.3017  13.5441
    14.6126  15.4221  15.4221  18.5132

          k =-0.4966-0.4966 0.4946 (   924 PWs)   bands (ev):

   -82.8965 -79.7260 -46.3359 -46.3150 -46.2456 -43.2834 -43.2581 -43.2184
    -5.2497  -5.2185   5.5387   6.7796   8.0655   8.1027   9.2786   9.3158
    10.2033  11.3551  11.5924  12.1548  12.3806  13.1477  13.8473  13.9598
    15.5053  15.5712  18.5417  19.6442

          k = 0.4959-0.1649-0.1649 (   913 PWs)   bands (ev):

   -82.8971 -79.7267 -46.3284 -46.3129 -46.2461 -43.2747 -43.2558 -43.2192
    -5.6843  -5.1426   6.8338   6.9705   7.4108   8.2360   8.7003   9.1040
    10.8228  11.3696  11.6833  12.2762  12.4408  12.9592  13.7588  13.8649
    14.8305  15.1081  18.8112  22.0108

          k =-0.0007-0.6615 0.3297 (   911 PWs)   bands (ev):

   -82.8965 -79.7260 -46.3320 -46.3181 -46.2449 -43.2788 -43.2621 -43.2179
    -5.3340  -5.1478   6.6397   6.7290   7.6459   8.1862   8.3157   8.4341
    11.0875  11.4326  11.6034  12.2127  12.3966  13.2455  13.7188  13.9241
    14.9535  15.1477  20.3992  22.0119

          k = 0.3311 0.3311-0.3297 (   921 PWs)   bands (ev):

   -82.8971 -79.7267 -46.3284 -46.3132 -46.2462 -43.2746 -43.2561 -43.2193
    -5.6066  -5.2252   6.4701   6.7816   8.1482   8.3303   8.6217   8.9693
    10.7384  11.3636  11.5183  12.4458  12.5762  13.0291  13.7616  13.8023
    15.1667  15.2318  18.1339  20.4072

          k =-0.1655-0.1655 0.1649 (   919 PWs)   bands (ev):

   -82.8982 -79.7280 -46.3145 -46.3091 -46.2480 -43.2579 -43.2514 -43.2215
    -6.2316  -5.2307   6.0618   7.8675   8.2155   8.6786   9.5220   9.5644
    10.9893  11.1568  11.3025  12.3722  12.4445  13.1428  13.5266  13.6024
    15.0124  15.0859  16.1892  19.9429

          k =-0.6608 0.6608 0.0000 (   908 PWs)   bands (ev):

   -82.8962 -79.7256 -46.3272 -46.3271 -46.2445 -43.2730 -43.2730 -43.2173
    -5.1506  -5.1504   6.7193   6.8646   7.3836   7.6745   8.2075   8.4006
    11.2867  11.4318  11.4722  12.2438  12.4791  13.6124  13.6794  13.7244
    15.0246  15.1913  21.9081  21.9890

          k =-1.1574 0.1642 0.4946 (   919 PWs)   bands (ev):

   -82.8974 -79.7270 -46.3239 -46.3131 -46.2465 -43.2690 -43.2562 -43.2197
    -5.8520  -5.1399   6.7249   7.3681   7.6325   8.1827   8.7036   9.0181
    11.0945  11.4981  11.5009  11.9721  12.5257  13.3201  13.4369  13.8327
    14.8479  15.1971  17.9378  21.9690

          k = 0.1662 0.1662 0.1662 (   939 PWs)   bands (ev):

   -82.8988 -79.7287 -46.3077 -46.3077 -46.2493 -43.2496 -43.2496 -43.2231
    -6.2275  -5.5922   6.4818   8.3116   8.3116   8.7093   9.6141   9.6141
    10.9210  10.9210  11.2853  12.6019  12.6019  13.2291  13.2291  13.3315
    15.1079  15.1079  16.1967  18.1433

          k =-0.3304-0.3304 0.6608 (   908 PWs)   bands (ev):

   -82.8965 -79.7260 -46.3357 -46.3146 -46.2449 -43.2832 -43.2579 -43.2180
    -5.2485  -5.2284   6.0614   6.8017   7.8775   8.2037   8.3623   8.9962
    10.6891  11.3732  11.6734  12.4330  12.5443  12.9171  13.8408  13.9754
    15.1493  15.1691  19.9502  20.4000

          k =-0.8257 0.4959 0.4959 (   898 PWs)   bands (ev):

   -82.8971 -79.7267 -46.3281 -46.3125 -46.2459 -43.2743 -43.2555 -43.2192
    -5.4965  -5.3362   6.2214   6.7767   8.1587   8.1734   9.3324   9.3807
    10.4029  11.3908  11.5853  12.0235  12.1591  13.1936  13.7399  13.8516
    14.6934  15.4587  19.6261  19.7199

          k =-1.3223-0.0007 0.9905 (   913 PWs)   bands (ev):

   -82.8965 -79.7260 -46.3320 -46.3182 -46.2451 -43.2788 -43.2622 -43.2180
    -5.3416  -5.1397   6.2365   7.1088   7.9619   8.0960   8.2112   8.3565
    11.0985  11.3938  11.5790  12.2844  12.3565  13.2547  13.7097  13.9225
    14.8362  15.5375  19.7010  21.1202

          k =-0.1649-0.1649 0.4959 (   913 PWs)   bands (ev):

   -82.8971 -79.7267 -46.3284 -46.3129 -46.2461 -43.2747 -43.2558 -43.2192
    -5.6843  -5.1426   6.8338   6.9705   7.4108   8.2360   8.7003   9.1040
    10.8228  11.3696  11.6833  12.2762  12.4408  12.9592  13.7588  13.8649
    14.8305  15.1081  18.8112  22.0108

          k =-0.6615-0.6615 0.9905 (   920 PWs)   bands (ev):

   -82.8982 -79.7280 -46.3145 -46.3093 -46.2480 -43.2578 -43.2516 -43.2217
    -5.8452  -5.6744   6.9367   7.3652   8.4604   8.6826   9.0450   9.1726
    10.8658  11.1417  11.6266  12.0297  12.4629  13.1915  13.5144  13.5745
    14.6396  15.1174  17.9410  18.8171

          k = 0.3311-0.3297 0.3311 (   921 PWs)   bands (ev):

   -82.8971 -79.7267 -46.3284 -46.3132 -46.2462 -43.2746 -43.2561 -43.2193
    -5.6066  -5.2252   6.4701   6.7816   8.1482   8.3303   8.6217   8.9693
    10.7384  11.3636  11.5183  12.4458  12.5762  13.0291  13.7616  13.8023
    15.1667  15.2318  18.1339  20.4072

          k =-0.1655-0.8263 0.8257 (   911 PWs)   bands (ev):

   -82.8965 -79.7260 -46.3322 -46.3180 -46.2452 -43.2789 -43.2620 -43.2182
    -5.2463  -5.2302   6.0555   6.7819   7.9020   8.2009   8.3679   8.9634
    10.8430  11.3420  11.5235  12.3375  12.4889  13.3524  13.6966  13.9133
    15.0883  15.2093  19.9570  20.4013

          k = 0.6608 0.0000-0.6608 (   908 PWs)   bands (ev):

   -82.8962 -79.7256 -46.3272 -46.3271 -46.2445 -43.2730 -43.2730 -43.2173
    -5.1506  -5.1504   6.7193   6.8646   7.3837   7.6745   8.2075   8.4006
    11.2867  11.4318  11.4722  12.2438  12.4791  13.6124  13.6794  13.7244
    15.0246  15.1913  21.9081  21.9890

          k = 0.1642-0.4966-0.1662 (   910 PWs)   bands (ev):

   -82.8974 -79.7270 -46.3236 -46.3131 -46.2464 -43.2688 -43.2562 -43.2198
    -5.6816  -5.3260   6.6155   6.9629   8.2614   8.3128   8.6615   9.1434
    10.9586  11.2201  11.5836  12.0314  12.4284  13.3850  13.4374  13.8686
    14.7251  15.0678  18.8114  20.4231

          k = 0.4959 0.4959-0.8257 (   898 PWs)   bands (ev):

   -82.8971 -79.7267 -46.3281 -46.3125 -46.2459 -43.2743 -43.2555 -43.2192
    -5.4965  -5.3362   6.2214   6.7767   8.1587   8.1734   9.3324   9.3807
    10.4029  11.3908  11.5853  12.0235  12.1591  13.1936  13.7399  13.8516
    14.6934  15.4587  19.6261  19.7199

          k =-0.0007-0.0007-0.3311 (   920 PWs)   bands (ev):

   -82.8982 -79.7280 -46.3146 -46.3092 -46.2478 -43.2579 -43.2515 -43.2215
    -6.1542  -5.3263   6.2352   7.9359   8.1368   8.3348   9.7566   9.8184
    10.7764  11.3417  11.5425  11.8340  12.0617  13.3118  13.4303  13.5953
    14.4973  15.4169  17.0099  19.6918

     the Fermi energy is    13.7856 ev
     (compare with:    13.7856 eV, computed in scf)

     Writing output data file ./tmp/HP/CoO.save/
     Done!

                   WRITING LINEAR-RESPONSE SUMMARY:


     Number of symmetries in the small group of q, nsymq =  4
      + the symmetry q -> -q+G 

     G cutoff =  453.9189  (   2588 G-vectors)     FFT grid: ( 54, 54, 54)
     G cutoff =  226.9595  (    922 G-vectors)  smooth grid: ( 40, 40, 40)

     Number of k (and k+q if q/=0) points =    40  Marzari-Vanderbilt smearing, width (Ry) =  0.0200

                       cart. coord. (in units 2pi/alat)
        k (    1) = (   0.0000000   0.0000000   0.0000000), wk = 0.0370370
        k (    2) = (  -0.4966040  -0.4966040   0.4945989), wk = 0.0000000
        k (    3) = (   0.4959356  -0.1648663  -0.1648663), wk = 0.1481481
        k (    4) = (  -0.0006683  -0.6614703   0.3297326), wk = 0.0000000
        k (    5) = (   0.3310693   0.3310693  -0.3297326), wk = 0.0740741
        k (    6) = (  -0.1655347  -0.1655347   0.1648663), wk = 0.0000000
        k (    7) = (  -0.6608019   0.6608019   0.0000000), wk = 0.0740741
        k (    8) = (  -1.1574059   0.1641980   0.4945989), wk = 0.0000000
        k (    9) = (   0.1662030   0.1662030   0.1662030), wk = 0.0740741
        k (   10) = (  -0.3304010  -0.3304010   0.6608019), wk = 0.0000000
        k (   11) = (  -0.8256682   0.4959356   0.4959356), wk = 0.1481481
        k (   12) = (  -1.3222722  -0.0006683   0.9905345), wk = 0.0000000
        k (   13) = (  -0.1648663  -0.1648663   0.4959356), wk = 0.0740741
        k (   14) = (  -0.6614703  -0.6614703   0.9905345), wk = 0.0000000
        k (   15) = (   0.3310693  -0.3297326   0.3310693), wk = 0.1481481
        k (   16) = (  -0.1655347  -0.8263366   0.8256682), wk = 0.0000000
        k (   17) = (   0.6608019   0.0000000  -0.6608019), wk = 0.1481481
        k (   18) = (   0.1641980  -0.4966040  -0.1662030), wk = 0.0000000
        k (   19) = (   0.4959356   0.4959356  -0.8256682), wk = 0.0740741
        k (   20) = (  -0.0006683  -0.0006683  -0.3310693), wk = 0.0000000
        k (   21) = (   0.0000000   0.0000000   0.0000000), wk = 0.0370370
        k (   22) = (  -0.4966040  -0.4966040   0.4945989), wk = 0.0000000
        k (   23) = (   0.4959356  -0.1648663  -0.1648663), wk = 0.1481481
        k (   24) = (  -0.0006683  -0.6614703   0.3297326), wk = 0.0000000
        k (   25) = (   0.3310693   0.3310693  -0.3297326), wk = 0.0740741
        k (   26) = (  -0.1655347  -0.1655347   0.1648663), wk = 0.0000000
        k (   27) = (  -0.6608019   0.6608019   0.0000000), wk = 0.0740741
        k (   28) = (  -1.1574059   0.1641980   0.4945989), wk = 0.0000000
        k (   29) = (   0.1662030   0.1662030   0.1662030), wk = 0.0740741
        k (   30) = (  -0.3304010  -0.3304010   0.6608019), wk = 0.0000000
        k (   31) = (  -0.8256682   0.4959356   0.4959356), wk = 0.1481481
        k (   32) = (  -1.3222722  -0.0006683   0.9905345), wk = 0.0000000
        k (   33) = (  -0.1648663  -0.1648663   0.4959356), wk = 0.0740741
        k (   34) = (  -0.6614703  -0.6614703   0.9905345), wk = 0.0000000
        k (   35) = (   0.3310693  -0.3297326   0.3310693), wk = 0.1481481
        k (   36) = (  -0.1655347  -0.8263366   0.8256682), wk = 0.0000000
        k (   37) = (   0.6608019   0.0000000  -0.6608019), wk = 0.1481481
        k (   38) = (   0.1641980  -0.4966040  -0.1662030), wk = 0.0000000
[...]

   -82.8971 -79.7267 -46.3284 -46.3129 -46.2460 -43.2746 -43.2558 -43.2192
    -5.6805  -5.1476   6.7815   6.9764   7.5390   8.3412   8.5405   8.9333
    10.8649  11.3646  11.5833  12.5301  12.5882  12.9167  13.7758  13.8243
    15.0137  15.1470  18.2770  21.1610

     the Fermi energy is    13.7856 ev
     (compare with:    13.7856 eV, computed in scf)

     Writing output data file ./tmp/HP/CoO.save/
     Done!

                   WRITING LINEAR-RESPONSE SUMMARY:


     Number of symmetries in the small group of q, nsymq =  6
      + the symmetry q -> -q+G 

     G cutoff =  453.9189  (   2588 G-vectors)     FFT grid: ( 54, 54, 54)
     G cutoff =  226.9595  (    922 G-vectors)  smooth grid: ( 40, 40, 40)

     Number of k (and k+q if q/=0) points =    24  Marzari-Vanderbilt smearing, width (Ry) =  0.0200

                       cart. coord. (in units 2pi/alat)
        k (    1) = (   0.0000000   0.0000000   0.0000000), wk = 0.0370370
        k (    2) = (  -0.2493045  -0.2493045  -0.2493045), wk = 0.0000000
        k (    3) = (   0.4959356  -0.1648663  -0.1648663), wk = 0.2222222
        k (    4) = (   0.2466311  -0.4141708  -0.4141708), wk = 0.0000000
        k (    5) = (   0.3310693   0.3310693  -0.3297326), wk = 0.2222222
        k (    6) = (   0.0817648   0.0817648  -0.5790371), wk = 0.0000000
        k (    7) = (  -0.6608019   0.6608019   0.0000000), wk = 0.2222222
        k (    8) = (  -0.9101064   0.4114974  -0.2493045), wk = 0.0000000
        k (    9) = (   0.1662030   0.1662030   0.1662030), wk = 0.0740741
        k (   10) = (  -0.0831015  -0.0831015  -0.0831015), wk = 0.0000000
        k (   11) = (  -0.8256682   0.4959356   0.4959356), wk = 0.2222222
        k (   12) = (  -1.0749727   0.2466311   0.2466311), wk = 0.0000000
        k (   13) = (   0.0000000   0.0000000   0.0000000), wk = 0.0370370
        k (   14) = (  -0.2493045  -0.2493045  -0.2493045), wk = 0.0000000
        k (   15) = (   0.4959356  -0.1648663  -0.1648663), wk = 0.2222222
        k (   16) = (   0.2466311  -0.4141708  -0.4141708), wk = 0.0000000
        k (   17) = (   0.3310693   0.3310693  -0.3297326), wk = 0.2222222
        k (   18) = (   0.0817648   0.0817648  -0.5790371), wk = 0.0000000
        k (   19) = (  -0.6608019   0.6608019   0.0000000), wk = 0.2222222
        k (   20) = (  -0.9101064   0.4114974  -0.2493045), wk = 0.0000000
        k (   21) = (   0.1662030   0.1662030   0.1662030), wk = 0.0740741
        k (   22) = (  -0.0831015  -0.0831015  -0.0831015), wk = 0.0000000
        k (   23) = (  -0.8256682   0.4959356   0.4959356), wk = 0.2222222
        k (   24) = (  -1.0749727   0.2466311   0.2466311), wk = 0.0000000

                       cryst. coord.
        k (    1) = (   0.0000000   0.0000000   0.0000000), wk = 0.0370370
        k (    2) = (  -0.5000000  -0.5000000  -0.5000000), wk = 0.0000000
        k (    3) = (  -0.0000000  -0.0000000   0.3333333), wk = 0.2222222
        k (    4) = (  -0.5000000  -0.5000000  -0.1666667), wk = 0.0000000
        k (    5) = (  -0.0000000   0.3333333   0.3333333), wk = 0.2222222
        k (    6) = (  -0.5000000  -0.1666667  -0.1666667), wk = 0.0000000
        k (    7) = (   0.0000000   0.3333333  -0.3333333), wk = 0.2222222
        k (    8) = (  -0.5000000  -0.1666667  -0.8333333), wk = 0.0000000
        k (    9) = (   0.3333333   0.3333333   0.3333333), wk = 0.0740741
        k (   10) = (  -0.1666667  -0.1666667  -0.1666667), wk = 0.0000000
        k (   11) = (   0.3333333   0.3333333  -0.3333333), wk = 0.2222222
        k (   12) = (  -0.1666667  -0.1666667  -0.8333333), wk = 0.0000000
        k (   13) = (   0.0000000   0.0000000   0.0000000), wk = 0.0370370
        k (   14) = (  -0.5000000  -0.5000000  -0.5000000), wk = 0.0000000
        k (   15) = (  -0.0000000  -0.0000000   0.3333333), wk = 0.2222222
        k (   16) = (  -0.5000000  -0.5000000  -0.1666667), wk = 0.0000000
        k (   17) = (  -0.0000000   0.3333333   0.3333333), wk = 0.2222222
        k (   18) = (  -0.5000000  -0.1666667  -0.1666667), wk = 0.0000000
        k (   19) = (   0.0000000   0.3333333  -0.3333333), wk = 0.2222222
        k (   20) = (  -0.5000000  -0.1666667  -0.8333333), wk = 0.0000000
        k (   21) = (   0.3333333   0.3333333   0.3333333), wk = 0.0740741
        k (   22) = (  -0.1666667  -0.1666667  -0.1666667), wk = 0.0000000
        k (   23) = (   0.3333333   0.3333333  -0.3333333), wk = 0.2222222
        k (   24) = (  -0.1666667  -0.1666667  -0.8333333), wk = 0.0000000

     Atomic wfc used for the projector on the Hubbard manifold are orthogonalized

     Total time spent up to now is:
     HP           :   4m31.84s CPU   5m10.67s WALL

      =--------------------------------------------=
             START SOLVING THE LINEAR SYSTEM
      =--------------------------------------------=

      atom #  3   q point #   4   iter #   1
      chi:   1   0.0775323710
      chi:   2   0.0775463047
      chi:   3  -0.2348860222
      chi:   4   0.0000005126
      Average number of iter. to solve lin. system:   37.5
      Total CPU time :   313.4 s

      atom #  3   q point #   4   iter #   2
      chi:   1  -5.9837114474   residue:    6.0612438184
      chi:   2  -5.9846114206   residue:    6.0621577253
      chi:   3   0.4187692084   residue:    0.6536552306
      chi:   4   0.0000360385   residue:    0.0000355259
      Average number of iter. to solve lin. system:   14.5
      Total CPU time :   314.9 s

      atom #  3   q point #   4   iter #   3
      chi:   1   1.4583200710   residue:    7.4420315184
      chi:   2   1.4589974192   residue:    7.4436088398
      chi:   3  -0.1087899472   residue:    0.5275591556
      chi:   4  -0.0000259864   residue:    0.0000620249
      Average number of iter. to solve lin. system:    9.3
      Total CPU time :   316.1 s

      atom #  3   q point #   4   iter #   4
      chi:   1  -1.1751815339   residue:    2.6335016049
      chi:   2  -1.1909457273   residue:    2.6499431465
      chi:   3  -0.0470978131   residue:    0.0616921341
      chi:   4   0.0005566905   residue:    0.0005826769
      Average number of iter. to solve lin. system:    9.7
      Total CPU time :   317.3 s

      atom #  3   q point #   4   iter #   5
      chi:   1  -0.1227780496   residue:    1.0524034843
      chi:   2   0.3230498394   residue:    1.5139955667
      chi:   3  -0.0820008983   residue:    0.0349030852
      chi:   4  -0.0156742264   residue:    0.0162309169
      Average number of iter. to solve lin. system:    9.2
      Total CPU time :   318.5 s

      atom #  3   q point #   4   iter #   6
      chi:   1   0.1815273147   residue:    0.3043053643
      chi:   2   0.0935498445   residue:    0.2294999950
      chi:   3  -0.0831321639   residue:    0.0011312656
      chi:   4   0.0030957209   residue:    0.0187699473
      Average number of iter. to solve lin. system:    8.7
      Total CPU time :   319.7 s

      atom #  3   q point #   4   iter #   7
      chi:   1  -0.0611392571   residue:    0.2426665719
      chi:   2  -0.0611491288   residue:    0.1546989733
      chi:   3  -0.0788895778   residue:    0.0042425861
      chi:   4  -0.0000080862   residue:    0.0031038071
      Average number of iter. to solve lin. system:    9.5
      Total CPU time :   320.9 s

      atom #  3   q point #   4   iter #   8
      chi:   1  -0.0297820518   residue:    0.0313572053
      chi:   2  -0.0293733889   residue:    0.0317757399
      chi:   3  -0.0798517821   residue:    0.0009622043
      chi:   4  -0.0000071656   residue:    0.0000009206
      Average number of iter. to solve lin. system:    8.6
      Total CPU time :   322.1 s

      atom #  3   q point #   4   iter #   9
      chi:   1  -0.0226205918   residue:    0.0071614601
      chi:   2  -0.0228729115   residue:    0.0065004774
      chi:   3  -0.0800950812   residue:    0.0002432991
      chi:   4   0.0000027354   residue:    0.0000099010
      Average number of iter. to solve lin. system:    9.5
      Total CPU time :   323.3 s

      atom #  3   q point #   4   iter #  10
      chi:   1  -0.0207660797   residue:    0.0018545121
      chi:   2  -0.0203795205   residue:    0.0024933910
      chi:   3  -0.0801645703   residue:    0.0000694891
      chi:   4  -0.0000046594   residue:    0.0000073948
      Average number of iter. to solve lin. system:   11.1
      Total CPU time :   324.6 s

      atom #  3   q point #   4   iter #  11
      chi:   1  -0.0211200226   residue:    0.0003539429
      chi:   2  -0.0216687813   residue:    0.0012892608
      chi:   3  -0.0801537486   residue:    0.0000108217
      chi:   4   0.0000107326   residue:    0.0000153920
      Average number of iter. to solve lin. system:   13.6
      Total CPU time :   326.1 s

      atom #  3   q point #   4   iter #  12
      chi:   1  -0.0209412856   residue:    0.0001787370
      chi:   2  -0.0209999644   residue:    0.0006688169
      chi:   3  -0.0801813597   residue:    0.0000276111
      chi:   4   0.0000002825   residue:    0.0000104502
      Average number of iter. to solve lin. system:   10.5
      Total CPU time :   327.4 s

      atom #  3   q point #   4   iter #  13
      chi:   1  -0.0207983503   residue:    0.0001429353
      chi:   2  -0.0207812669   residue:    0.0002186975
      chi:   3  -0.0801976718   residue:    0.0000163121
      chi:   4   0.0000001523   residue:    0.0000001302
      Average number of iter. to solve lin. system:   10.0
      Total CPU time :   328.6 s

      atom #  3   q point #   4   iter #  14
      chi:   1  -0.0206132582   residue:    0.0001850921
      chi:   2  -0.0207398944   residue:    0.0000413725
      chi:   3  -0.0802239684   residue:    0.0000262965
      chi:   4   0.0000020003   residue:    0.0000018480
      Average number of iter. to solve lin. system:   10.9
      Total CPU time :   329.9 s

      atom #  3   q point #   4   iter #  15
      chi:   1  -0.0205303461   residue:    0.0000829121
      chi:   2  -0.0205181498   residue:    0.0002217447
      chi:   3  -0.0802368257   residue:    0.0000128573
      chi:   4  -0.0000000471   residue:    0.0000020474
      Average number of iter. to solve lin. system:   10.5
      Total CPU time :   331.2 s

      atom #  3   q point #   4   iter #  16
      chi:   1  -0.0204835590   residue:    0.0000467871
      chi:   2  -0.0204867001   residue:    0.0000314497
      chi:   3  -0.0802417037   residue:    0.0000048781
      chi:   4   0.0000002201   residue:    0.0000002672
      Average number of iter. to solve lin. system:   11.9
      Total CPU time :   332.6 s

      atom #  3   q point #   4   iter #  17
      chi:   1  -0.0204915891   residue:    0.0000080301
      chi:   2  -0.0204924354   residue:    0.0000057353
      chi:   3  -0.0802398425   residue:    0.0000018612
      chi:   4   0.0000001606   residue:    0.0000000595
      Average number of iter. to solve lin. system:   13.2
      Total CPU time :   334.0 s

      atom #  3   q point #   4   iter #  18
      chi:   1  -0.0204938591   residue:    0.0000022700
      chi:   2  -0.0204923470   residue:    0.0000000884
      chi:   3  -0.0802393675   residue:    0.0000004750
      chi:   4   0.0000001255   residue:    0.0000000351
      Average number of iter. to solve lin. system:   13.5
      Total CPU time :   335.4 s

      atom #  3   q point #   4   iter #  19
      chi:   1  -0.0204870149   residue:    0.0000068441
      chi:   2  -0.0204869266   residue:    0.0000054203
      chi:   3  -0.0802400038   residue:    0.0000006363
      chi:   4   0.0000001499   residue:    0.0000000244
      Average number of iter. to solve lin. system:   12.7
      Total CPU time :   336.8 s

      atom #  3   q point #   4   iter #  20
      chi:   1  -0.0204900729   residue:    0.0000030580
      chi:   2  -0.0204902156   residue:    0.0000032890
      chi:   3  -0.0802396803   residue:    0.0000003235
      chi:   4   0.0000001647   residue:    0.0000000148
      Average number of iter. to solve lin. system:   12.3
      Total CPU time :   338.2 s

      atom #  3   q point #   4   iter #  21
      chi:   1  -0.0204879391   residue:    0.0000021338
      chi:   2  -0.0204874961   residue:    0.0000027195
      chi:   3  -0.0802399279   residue:    0.0000002475
      chi:   4   0.0000001339   residue:    0.0000000308
      Average number of iter. to solve lin. system:   12.7
      Total CPU time :   339.6 s

      atom #  3   q point #   4   iter #  22
      chi:   1  -0.0204890818   residue:    0.0000011427
      chi:   2  -0.0204884594   residue:    0.0000009633
      chi:   3  -0.0802398237   residue:    0.0000001042
      chi:   4   0.0000001412   residue:    0.0000000072
      Average number of iter. to solve lin. system:   11.5
      Total CPU time :   340.9 s

      atom #  3   q point #   4   iter #  23
      chi:   1  -0.0204888169   residue:    0.0000002648
      chi:   2  -0.0204887779   residue:    0.0000003185
      chi:   3  -0.0802398205   residue:    0.0000000032
      chi:   4   0.0000001507   residue:    0.0000000095
      Average number of iter. to solve lin. system:   13.7
      Total CPU time :   342.4 s
      
      =--------------------------------------------=
             CONVERGENCE HAS BEEN REACHED
      =--------------------------------------------=

     Computing the sum over q of the response occupation matrices...

     q #   1 =  0.000000000   0.000000000   0.000000000
 
     Number of q in the star =    1
     List of q in the star:
          1   0.000000000   0.000000000   0.000000000

     q #   2 = -0.743903412   0.247299460   0.247299460
 
     Number of q in the star =    3
     List of q in the star:
          1  -0.743903412   0.247299460   0.247299460
          2   0.247299460  -0.743903412   0.247299460
          3   0.247299460   0.247299460  -0.743903412

     q #   3 = -0.496603951  -0.496603951   0.494598921
 
     Number of q in the star =    3
     List of q in the star:
          1  -0.496603951  -0.496603951   0.494598921
          2   0.494598921  -0.496603951  -0.496603951
          3  -0.496603951   0.494598921  -0.496603951

     q #   4 = -0.249304491  -0.249304491  -0.249304491
 
     Number of q in the star =    1
     List of q in the star:
          1  -0.249304491  -0.249304491  -0.249304491

     Post-processing calculation of Hubbard parameters ...

 
     PRINTING TIMING FROM PWSCF ROUTINES: 
 
     init_run     :      1.67s CPU      1.83s WALL (       7 calls)
     electrons    :     17.11s CPU     17.91s WALL (       7 calls)

     Called by init_run:
     wfcinit      :      0.20s CPU      0.20s WALL (       7 calls)
     wfcinit:atom :      0.01s CPU      0.01s WALL (     220 calls)
     wfcinit:wfcr :      1.48s CPU      1.56s WALL (     220 calls)
     potinit      :      0.34s CPU      0.46s WALL (       7 calls)
     hinit0       :      0.97s CPU      1.00s WALL (       7 calls)

     Called by electrons:
     c_bands      :     17.10s CPU     17.90s WALL (       7 calls)
     v_of_rho     :      0.19s CPU      0.20s WALL (       9 calls)
     v_h          :      0.00s CPU      0.00s WALL (       9 calls)
     v_xc         :      0.19s CPU      0.20s WALL (       9 calls)
     newd         :      0.14s CPU      0.15s WALL (       9 calls)
     PAW_pot      :      0.23s CPU      0.36s WALL (       9 calls)

     Called by c_bands:
     init_us_2    :      0.22s CPU      0.24s WALL (    3492 calls)
     cegterg      :     15.51s CPU     16.22s WALL (     272 calls)

     Called by sum_band:

     Called by *egterg:
     cdiaghg      :      5.17s CPU      5.36s WALL (    3596 calls)
     cegterg:over :      0.38s CPU      0.41s WALL (    3376 calls)
     cegterg:upda :      0.16s CPU      0.17s WALL (    3376 calls)
     cegterg:last :      0.12s CPU      0.13s WALL (     712 calls)
     h_psi        :    186.42s CPU    200.93s WALL (   84902 calls)
     s_psi        :      4.08s CPU      4.42s WALL (  169056 calls)
     g_psi        :      0.04s CPU      0.04s WALL (    3376 calls)

     Called by h_psi:
     h_psi:calbec :      3.89s CPU      4.20s WALL (   84902 calls)
     vloc_psi     :    174.93s CPU    188.53s WALL (   84902 calls)
     add_vuspsi   :      2.10s CPU      2.28s WALL (   84902 calls)
     vhpsi        :      4.75s CPU      5.13s WALL (   84902 calls)

     General routines
     calbec       :      8.53s CPU      9.24s WALL (  256778 calls)
     fft          :      1.67s CPU      1.82s WALL (    5204 calls)
     ffts         :      0.14s CPU      0.16s WALL (    1270 calls)
     fftw         :    179.29s CPU    193.73s WALL ( 2400498 calls)
     interpolate  :      0.29s CPU      0.36s WALL (     694 calls)
     davcio       :      1.32s CPU      1.68s WALL (  107378 calls)
 
     Parallel routines
     fft_scatt_xy :     21.41s CPU     22.86s WALL ( 2406972 calls)
     fft_scatt_yz :     55.31s CPU     60.08s WALL ( 2406972 calls)

     Hubbard U routines
     alloc_neigh  :      0.00s CPU      0.00s WALL (       2 calls)
     vhpsi        :      4.75s CPU      5.13s WALL (   84902 calls)

     PAW routines
     PAW_pot      :      0.23s CPU      0.36s WALL (       9 calls)
 
     init_vloc    :      0.14s CPU      0.14s WALL (       9 calls)
     init_us_1    :      0.65s CPU      0.68s WALL (       9 calls)
     newd         :      0.14s CPU      0.15s WALL (       9 calls)
     add_vuspsi   :      2.10s CPU      2.28s WALL (   84902 calls)
 
     PRINTING TIMING FROM HP ROUTINES: 
 
     hp_setup_q   :      0.72s CPU      0.76s WALL (       8 calls)
     hp_init_q    :      0.23s CPU      0.25s WALL (       8 calls)
     hp_solve_lin :    277.73s CPU    320.22s WALL (       8 calls)
     hp_dvpsi_per :      0.08s CPU      0.08s WALL (    2668 calls)
     hp_dnsq      :      0.55s CPU      0.64s WALL (     165 calls)
     hp_symdnsq   :      0.01s CPU      0.02s WALL (     165 calls)
     hp_dnstot_su :      0.00s CPU      0.00s WALL (       2 calls)
     hp_rotate_dn :      0.00s CPU      0.00s WALL (      16 calls)
     hp_calc_chi  :      0.00s CPU      0.00s WALL (       2 calls)
     hp_postproc  :      0.00s CPU      0.00s WALL (       1 calls)
     hp_vpsifft   :     10.37s CPU     11.36s WALL (    2540 calls)
     hp_ef_shift  :      0.05s CPU      0.05s WALL (      36 calls)
     hp_run_nscf  :     19.10s CPU     20.25s WALL (       7 calls)
     hp_postproc  :      0.00s CPU      0.00s WALL (       1 calls)
     hp_psymdvscf :      9.82s CPU      9.87s WALL (     165 calls)
 
     PRINTING TIMING FROM LR MODULE: 
 
     ortho        :      0.60s CPU      0.65s WALL (    2668 calls)
     cgsolve      :    190.13s CPU    205.23s WALL (    2668 calls)
     ch_psi       :    187.67s CPU    202.55s WALL (   81034 calls)
     incdrhoscf   :     11.62s CPU     12.70s WALL (    2668 calls)
     localdos     :      0.13s CPU      0.14s WALL (       2 calls)
     dv_of_drho   :      2.22s CPU      2.31s WALL (     165 calls)
     mix_pot      :      0.54s CPU      0.98s WALL (     165 calls)
     setup_dgc    :      0.58s CPU      0.62s WALL (       8 calls)
     setup_dmuxc  :      0.13s CPU      0.13s WALL (       8 calls)
     setup_nbnd_o :      0.00s CPU      0.00s WALL (       8 calls)
     lr_orthoUwfc :      0.19s CPU      0.21s WALL (       8 calls)
     cft_wave     :      9.49s CPU     10.39s WALL (  121920 calls)
 
     USPP ROUTINES: 
 
     newdq        :      3.47s CPU      3.53s WALL (     165 calls)
     adddvscf     :      0.38s CPU      0.42s WALL (    2540 calls)
     addusdbec    :      0.24s CPU      0.25s WALL (    2668 calls)
     addusldos    :      0.04s CPU      0.04s WALL (       2 calls)
 
     HP           :   4m58.57s CPU   5m42.39s WALL

 
   This run was terminated on:  14:38:14   7Jun2021            

=------------------------------------------------------------------------------=
   JOB DONE.
=------------------------------------------------------------------------------=
