
     Program BANDS v.7.1 starts on  2Nov2022 at 11:38:26 

     This program is part of the open-source Quantum ESPRESSO suite
     for quantum simulation of materials; please cite
         "P. Giannozzi et al., J. Phys.:Condens. Matter 21 395502 (2009);
         "P. Giannozzi et al., J. Phys.:Condens. Matter 29 465901 (2017);
         "P. Giannozzi et al., J. Chem. Phys. 152 154105 (2020);
          URL http://www.quantum-espresso.org", 
     in publications or presentations arising from this work. More details at
     http://www.quantum-espresso.org/quote

     Parallel version (MPI), running on     1 processors

     MPI processes distributed on     1 nodes
     407 MiB available memory on the printing compute node when the environment starts
 

     Reading xml data from directory:

     ./out/si.save/

     IMPORTANT: XC functional enforced from input :
     Exchange-correlation= PW
                           (   1   4   0   0   0   0   0)
     Any further DFT definition will be discarded
     Please, verify this is what you really want

 
     G-vector sticks info
     --------------------
     sticks:   dense  smooth     PW     G-vecs:    dense   smooth      PW
     Sum         295     295     91                 3287     3287     609
 
     Using Slab Decomposition
 
     Reading collected, re-writing distributed wavefunctions
     high-symmetry point: -0.5000 0.5000 0.5000   x coordinate   0.0000
     high-symmetry point:  0.0000 0.0000 0.0000   x coordinate   0.8660
     high-symmetry point: -1.0000 0.0000 0.0000   x coordinate   1.8660
     high-symmetry point: -0.7500 0.7500 0.0000   x coordinate   2.6566
     high-symmetry point:  0.0000 0.0000 0.0000   x coordinate   3.7173

     Plottable bands (eV) written to file dft_bands.gnu
     Bands written to file dft_bands

 **************************************************************************

                    xk=(  -0.50000,   0.50000,   0.50000  )

     zone border point and non-symmorphic group 
     symmetry decomposition not available

 **************************************************************************

 **************************************************************************

                    xk=(  -0.46667,   0.46667,   0.46667  )

     point group C_3v (3m)  
     there are  3 classes
     the character table:

       E     2C3   3s_v 
A_1    1.00  1.00  1.00
A_2    1.00  1.00 -1.00
E      2.00 -1.00  0.00

     the symmetry operations in each class and the name of the first element:

     E        1
                                                                 
     2C3      2    3
                                                                 
     3s_v     4    5    6
                                                                 

     Band symmetry, C_3v (3m)   point group:

     e(  1 -  1) =     -3.64443  eV     1   --> A_1  L_1       
     e(  2 -  2) =     -0.85879  eV     1   --> A_1  L_1       
     e(  3 -  4) =      4.85841  eV     2   --> E    L_3       
     e(  5 -  5) =      7.49072  eV     1   --> A_1  L_1       
     e(  6 -  7) =      9.37949  eV     2   --> E    L_3       
     e(  8 -  8) =     13.59390  eV     1   --> A_1  L_1       
     e(  9 - 10) =     16.24538  eV     2   --> E    L_3       

 **************************************************************************

 **************************************************************************

                    xk=(  -0.43333,   0.43333,   0.43333  )

     Band symmetry, C_3v (3m)   point group:

     e(  1 -  1) =     -3.81001  eV     1   --> A_1  L_1       
     e(  2 -  2) =     -0.61097  eV     1   --> A_1  L_1       
     e(  3 -  4) =      4.88254  eV     2   --> E    L_3       
     e(  5 -  5) =      7.51243  eV     1   --> A_1  L_1       
     e(  6 -  7) =      9.40589  eV     2   --> E    L_3       
     e(  8 -  8) =     13.63486  eV     1   --> A_1  L_1       
     e(  9 - 10) =     15.64405  eV     2   --> E    L_3       

 **************************************************************************

 **************************************************************************

                    xk=(  -0.40000,   0.40000,   0.40000  )

     Band symmetry, C_3v (3m)   point group:

     e(  1 -  1) =     -4.03599  eV     1   --> A_1  L_1       
     e(  2 -  2) =     -0.24818  eV     1   --> A_1  L_1       
     e(  3 -  4) =      4.92227  eV     2   --> E    L_3       
     e(  5 -  5) =      7.55816  eV     1   --> A_1  L_1       
     e(  6 -  7) =      9.44583  eV     2   --> E    L_3       
     e(  8 -  8) =     13.69492  eV     1   --> A_1  L_1       
     e(  9 - 10) =     15.06188  eV     2   --> E    L_3       

 **************************************************************************

 **************************************************************************

                    xk=(  -0.36667,   0.36667,   0.36667  )

     Band symmetry, C_3v (3m)   point group:

     e(  1 -  1) =     -4.28600  eV     1   --> A_1  L_1       
     e(  2 -  2) =      0.19348  eV     1   --> A_1  L_1       
     e(  3 -  4) =      4.97825  eV     2   --> E    L_3       
     e(  5 -  5) =      7.62192  eV     1   --> A_1  L_1       
     e(  6 -  7) =      9.49274  eV     2   --> E    L_3       
     e(  8 -  8) =     13.75054  eV     1   --> A_1  L_1       
     e(  9 - 10) =     14.53156  eV     2   --> E    L_3       

 **************************************************************************

 **************************************************************************

                    xk=(  -0.33333,   0.33333,   0.33333  )

     Band symmetry, C_3v (3m)   point group:

     e(  1 -  1) =     -4.53986  eV     1   --> A_1  L_1       
     e(  2 -  2) =      0.69105  eV     1   --> A_1  L_1       
     e(  3 -  4) =      5.04925  eV     2   --> E    L_3       
     e(  5 -  5) =      7.70308  eV     1   --> A_1  L_1       
     e(  6 -  7) =      9.53599  eV     2   --> E    L_3       
     e(  8 -  8) =     13.73303  eV     1   --> A_1  L_1       
     e(  9 - 10) =     14.06339  eV     2   --> E    L_3       

 **************************************************************************

 **************************************************************************

                    xk=(  -0.30000,   0.30000,   0.30000  )

     Band symmetry, C_3v (3m)   point group:

     e(  1 -  1) =     -4.78393  eV     1   --> A_1  L_1       
     e(  2 -  2) =      1.23092  eV     1   --> A_1  L_1       
     e(  3 -  4) =      5.13530  eV     2   --> E    L_3       
     e(  5 -  5) =      7.80206  eV     1   --> A_1  L_1       
     e(  6 -  7) =      9.56257  eV     2   --> E    L_3       
     e(  8 -  8) =     13.50851  eV     1   --> A_1  L_1       
     e(  9 - 10) =     13.67676  eV     2   --> E    L_3       

 **************************************************************************

 **************************************************************************

                    xk=(  -0.26667,   0.26667,   0.26667  )

     Band symmetry, C_3v (3m)   point group:

     e(  1 -  1) =     -5.01139  eV     1   --> A_1  L_1       
     e(  2 -  2) =      1.80311  eV     1   --> A_1  L_1       
     e(  3 -  4) =      5.23526  eV     2   --> E    L_3       
     e(  5 -  5) =      7.91441  eV     1   --> A_1  L_1       
     e(  6 -  7) =      9.55182  eV     2   --> E    L_3       
     e(  8 -  8) =     13.06319  eV     1   --> A_1  L_1       
     e(  9 - 10) =     13.38543  eV     2   --> E    L_3       

 **************************************************************************

 **************************************************************************

                    xk=(  -0.23333,   0.23333,   0.23333  )

     Band symmetry, C_3v (3m)   point group:

     e(  1 -  1) =     -5.21735  eV     1   --> A_1  L_1       
     e(  2 -  2) =      2.40171  eV     1   --> A_1  L_1       
     e(  3 -  4) =      5.34801  eV     2   --> E    L_3       
     e(  5 -  5) =      8.03960  eV     1   --> A_1  L_1       
     e(  6 -  7) =      9.49599  eV     2   --> E    L_3       
     e(  8 -  8) =     12.52093  eV     1   --> A_1  L_1       
     e(  9 - 10) =     13.21142  eV     2   --> E    L_3       

 **************************************************************************

 **************************************************************************

                    xk=(  -0.20000,   0.20000,   0.20000  )

     Band symmetry, C_3v (3m)   point group:

     e(  1 -  1) =     -5.39956  eV     1   --> A_1  L_1       
     e(  2 -  2) =      3.01941  eV     1   --> A_1  L_1       
     e(  3 -  4) =      5.47091  eV     2   --> E    L_3       
     e(  5 -  5) =      8.17674  eV     1   --> A_1  L_1       
     e(  6 -  7) =      9.38685  eV     2   --> E    L_3       
     e(  8 -  8) =     11.94199  eV     1   --> A_1  L_1       
     e(  9 - 10) =     13.14664  eV     2   --> E    L_3       

 **************************************************************************

 **************************************************************************

                    xk=(  -0.16667,   0.16667,   0.16667  )

     Band symmetry, C_3v (3m)   point group:

     e(  1 -  1) =     -5.55519  eV     1   --> A_1  L_1       
     e(  2 -  2) =      3.64852  eV     1   --> A_1  L_1       
     e(  3 -  4) =      5.60122  eV     2   --> E    L_3       
     e(  5 -  5) =      8.31346  eV     1   --> A_1  L_1       
     e(  6 -  7) =      9.23425  eV     2   --> E    L_3       
     e(  8 -  8) =     11.34881  eV     1   --> A_1  L_1       
     e(  9 - 10) =     13.18952  eV     2   --> E    L_3       

 **************************************************************************

 **************************************************************************

                    xk=(  -0.13333,   0.13333,   0.13333  )

     Band symmetry, C_3v (3m)   point group:

     e(  1 -  1) =     -5.68463  eV     1   --> A_1  L_1       
     e(  2 -  2) =      4.27802  eV     1   --> A_1  L_1       
     e(  3 -  4) =      5.73146  eV     2   --> E    L_3       
     e(  5 -  5) =      8.44430  eV     1   --> A_1  L_1       
     e(  6 -  7) =      9.05642  eV     2   --> E    L_3       
     e(  8 -  8) =     10.75460  eV     1   --> A_1  L_1       
     e(  9 - 10) =     13.30776  eV     2   --> E    L_3       

 **************************************************************************

 **************************************************************************

                    xk=(  -0.10000,   0.10000,   0.10000  )

     Band symmetry, C_3v (3m)   point group:

     e(  1 -  1) =     -5.78571  eV     1   --> A_1  L_1       
     e(  2 -  2) =      4.89051  eV     1   --> A_1  L_1       
     e(  3 -  4) =      5.85428  eV     2   --> E    L_3       
     e(  5 -  5) =      8.55557  eV     1   --> A_1  L_1       
     e(  6 -  7) =      8.87823  eV     2   --> E    L_3       
     e(  8 -  8) =     10.18148  eV     1   --> A_1  L_1       
     e(  9 - 10) =     13.47514  eV     2   --> E    L_3       

 **************************************************************************

 **************************************************************************

                    xk=(  -0.06667,   0.06667,   0.06667  )

     Band symmetry, C_3v (3m)   point group:

     e(  1 -  1) =     -5.85839  eV     1   --> A_1  L_1       
     e(  2 -  2) =      5.44944  eV     1   --> A_1  L_1       
     e(  3 -  4) =      5.95811  eV     2   --> E    L_3       
     e(  5 -  5) =      8.62327  eV     1   --> A_1  L_1       
     e(  6 -  7) =      8.72478  eV     2   --> E    L_3       
     e(  8 -  8) =      9.67367  eV     1   --> A_1  L_1       
     e(  9 - 10) =     13.65191  eV     2   --> E    L_3       

 **************************************************************************

 **************************************************************************

                    xk=(  -0.03333,   0.03333,   0.03333  )

     Band symmetry, C_3v (3m)   point group:

     e(  1 -  1) =     -5.90213  eV     1   --> A_1  L_1       
     e(  2 -  2) =      5.88113  eV     1   --> A_1  L_1       
     e(  3 -  4) =      6.02910  eV     2   --> E    L_3       
     e(  5 -  5) =      8.61882  eV     1   --> A_1  L_1       
     e(  6 -  7) =      8.62091  eV     2   --> E    L_3       
     e(  8 -  8) =      9.32644  eV     1   --> A_1  L_1       
     e(  9 -  9) =     13.79124  eV     1   -->   ?
     e( 10 - 10) =     13.79444  eV     1   -->   ?

 **************************************************************************

 **************************************************************************

                    xk=(   0.00000,   0.00000,   0.00000  )

     point group O_h (m-3m) 
     there are 10 classes
     the character table:

       E     8C3   3C2   6C4   6C2'  i     8S6   3s_h  6S4   6s_d 
A_1g   1.00  1.00  1.00  1.00  1.00  1.00  1.00  1.00  1.00  1.00
A_2g   1.00  1.00  1.00 -1.00 -1.00  1.00  1.00  1.00 -1.00 -1.00
E_g    2.00 -1.00  2.00  0.00  0.00  2.00 -1.00  2.00  0.00  0.00
T_1g   3.00  0.00 -1.00  1.00 -1.00  3.00  0.00 -1.00  1.00 -1.00
T_2g   3.00  0.00 -1.00 -1.00  1.00  3.00  0.00 -1.00 -1.00  1.00
A_1u   1.00  1.00  1.00  1.00  1.00 -1.00 -1.00 -1.00 -1.00 -1.00
A_2u   1.00  1.00  1.00 -1.00 -1.00 -1.00 -1.00 -1.00  1.00  1.00
E_u    2.00 -1.00  2.00  0.00  0.00 -2.00  1.00 -2.00  0.00  0.00
T_1u   3.00  0.00 -1.00  1.00 -1.00 -3.00  0.00  1.00 -1.00  1.00
T_2u   3.00  0.00 -1.00 -1.00  1.00 -3.00  0.00  1.00  1.00 -1.00

     the symmetry operations in each class and the name of the first element:

     E        1
                                                                 
     8C3     17   19   20   18   24   21   22   23
                                                                 
     3C2      2    4    3
                                                                 
     6C4      7    8   15   16   12   11
                                                                 
     6C2'     5    6   14   13   10    9
                                                                 
     i       25
                                                                 
     8S6     41   43   44   42   48   45   46   47
                                                                 
     3s_h    26   28   27
                                                                 
     6S4     31   32   39   40   36   35
                                                                 
     6s_d    29   30   38   37   34   33
                                                                 

     Band symmetry, O_h (m-3m)  point group:

     e(  1 -  1) =     -5.91673  eV     1   --> A_1g G_1   G_1+
     e(  2 -  4) =      6.05452  eV     3   --> T_2g G_25' G_5+
     e(  5 -  7) =      8.58394  eV     3   --> T_1u G_15  G_4-
     e(  8 -  8) =      9.21591  eV     1   --> A_2u G_2'  G_2-
     e(  9 -  9) =     13.72463  eV     1   --> A_1g G_1   G_1+
     e( 10 - 10) =     13.84954  eV     1   -->   ?

 **************************************************************************

 **************************************************************************

                    xk=(  -0.06667,   0.00000,   0.00000  )

     point group C_4v (4mm) 
     there are  5 classes
     the character table:

       E     2C4   C2    2s_v  2s_d 
A_1    1.00  1.00  1.00  1.00  1.00
A_2    1.00  1.00  1.00 -1.00 -1.00
B_1    1.00 -1.00  1.00  1.00 -1.00
B_2    1.00 -1.00  1.00 -1.00  1.00
E      2.00  0.00 -2.00  0.00  0.00

     the symmetry operations in each class and the name of the first element:

     E        1
                                                                 
     2C4      3    4
                                                                 
     C2       2
                                                                 
     2s_v     5    6
                                                                 
     2s_d     7    8
                                                                 

     Band symmetry, C_4v (4mm)  point group:

     e(  1 -  1) =     -5.89726  eV     1   --> A_1  G_1 D_1   
     e(  2 -  2) =      5.91943  eV     1   --> B_2  G_4 D_2'  
     e(  3 -  4) =      5.97154  eV     2   --> E    G_5 D_5   
     e(  5 -  5) =      8.53351  eV     1   --> A_1  G_1 D_1   
     e(  6 -  7) =      8.69067  eV     2   --> E    G_5 D_5   
     e(  8 -  8) =      9.34751  eV     1   --> B_2  G_4 D_2'  
     e(  9 -  9) =     13.68472  eV     1   --> B_2  G_4 D_2'  
     e( 10 - 10) =     13.81328  eV     1   --> A_1  G_1 D_1   

 **************************************************************************

 **************************************************************************

                    xk=(  -0.13333,   0.00000,   0.00000  )

     Band symmetry, C_4v (4mm)  point group:

     e(  1 -  1) =     -5.83889  eV     1   --> A_1  G_1 D_1   
     e(  2 -  2) =      5.56876  eV     1   --> B_2  G_4 D_2'  
     e(  3 -  4) =      5.75717  eV     2   --> E    G_5 D_5   
     e(  5 -  5) =      8.39301  eV     1   --> A_1  G_1 D_1   
     e(  6 -  7) =      8.97709  eV     2   --> E    G_5 D_5   
     e(  8 -  8) =      9.67891  eV     1   --> B_2  G_4 D_2'  
     e(  9 -  9) =     13.28412  eV     1   --> B_2  G_4 D_2'  
     e( 10 - 10) =     13.93703  eV     1   --> A_2  G_2 D_1'  

 **************************************************************************

 **************************************************************************

                    xk=(  -0.20000,   0.00000,   0.00000  )

     Band symmetry, C_4v (4mm)  point group:

     e(  1 -  1) =     -5.74156  eV     1   --> A_1  G_1 D_1   
     e(  2 -  2) =      5.09480  eV     1   --> B_2  G_4 D_2'  
     e(  3 -  4) =      5.47313  eV     2   --> E    G_5 D_5   
     e(  5 -  5) =      8.18808  eV     1   --> A_1  G_1 D_1   
     e(  6 -  7) =      9.37992  eV     2   --> E    G_5 D_5   
     e(  8 -  8) =     10.07200  eV     1   --> B_2  G_4 D_2'  
     e(  9 -  9) =     12.82085  eV     1   --> B_2  G_4 D_2'  
     e( 10 - 10) =     14.05124  eV     1   --> A_2  G_2 D_1'  

 **************************************************************************

 **************************************************************************

                    xk=(  -0.26667,   0.00000,   0.00000  )

     Band symmetry, C_4v (4mm)  point group:

     e(  1 -  1) =     -5.60639  eV     1   --> A_1  G_1 D_1   
     e(  2 -  2) =      4.55818  eV     1   --> B_2  G_4 D_2'  
     e(  3 -  4) =      5.16330  eV     2   --> E    G_5 D_5   
     e(  5 -  5) =      7.94619  eV     1   --> A_1  G_1 D_1   
     e(  6 -  7) =      9.85355  eV     2   --> E    G_5 D_5   
     e(  8 -  8) =     10.33575  eV     1   --> B_2  G_4 D_2'  
     e(  9 -  9) =     12.50906  eV     1   --> B_2  G_4 D_2'  
     e( 10 - 10) =     14.20434  eV     1   --> A_2  G_2 D_1'  

 **************************************************************************

 **************************************************************************

                    xk=(  -0.33333,   0.00000,   0.00000  )

     Band symmetry, C_4v (4mm)  point group:

     e(  1 -  1) =     -5.43276  eV     1   --> A_1  G_1 D_1   
     e(  2 -  2) =      3.98980  eV     1   --> B_2  G_4 D_2'  
     e(  3 -  4) =      4.85363  eV     2   --> E    G_5 D_5   
     e(  5 -  5) =      7.69243  eV     1   --> A_1  G_1 D_1   
     e(  6 -  6) =     10.24940  eV     1   --> B_2  G_4 D_2'  
     e(  7 -  8) =     10.37113  eV     2   --> E    G_5 D_5   
     e(  9 -  9) =     12.59192  eV     1   --> B_2  G_4 D_2'  
     e( 10 - 10) =     14.39770  eV     1   --> A_2  G_2 D_1'  

 **************************************************************************

 **************************************************************************

                    xk=(  -0.40000,   0.00000,   0.00000  )

     Band symmetry, C_4v (4mm)  point group:

     e(  1 -  1) =     -5.22225  eV     1   --> A_1  G_1 D_1   
     e(  2 -  2) =      3.40456  eV     1   --> B_2  G_4 D_2'  
     e(  3 -  4) =      4.55708  eV     2   --> E    G_5 D_5   
     e(  5 -  5) =      7.44334  eV     1   --> A_1  G_1 D_1   
     e(  6 -  6) =      9.86034  eV     1   --> B_2  G_4 D_2'  
     e(  7 -  8) =     10.91758  eV     2   --> E    G_5 D_5   
     e(  9 -  9) =     13.03229  eV     1   --> B_2  G_4 D_2'  
     e( 10 - 10) =     14.63402  eV     1   --> A_2  G_2 D_1'  

 **************************************************************************

 **************************************************************************

                    xk=(  -0.46667,   0.00000,   0.00000  )

     Band symmetry, C_4v (4mm)  point group:

     e(  1 -  1) =     -4.97424  eV     1   --> A_1  G_1 D_1   
     e(  2 -  2) =      2.81086  eV     1   --> B_2  G_4 D_2'  
     e(  3 -  4) =      4.28220  eV     2   --> E    G_5 D_5   
     e(  5 -  5) =      7.21055  eV     1   --> A_1  G_1 D_1   
     e(  6 -  6) =      9.36174  eV     1   --> B_2  G_4 D_2'  
     e(  7 -  8) =     11.48541  eV     2   --> E    G_5 D_5   
     e(  9 -  9) =     13.63971  eV     1   --> B_2  G_4 D_2'  
     e( 10 - 10) =     14.91291  eV     1   --> A_2  G_2 D_1'  

 **************************************************************************

 **************************************************************************

                    xk=(  -0.53333,   0.00000,   0.00000  )

     Band symmetry, C_4v (4mm)  point group:

     e(  1 -  1) =     -4.68949  eV     1   --> A_1  G_1 D_1   
     e(  2 -  2) =      2.21388  eV     1   --> B_2  G_4 D_2'  
     e(  3 -  4) =      4.03360  eV     2   --> E    G_5 D_5   
     e(  5 -  5) =      7.00457  eV     1   --> A_1  G_1 D_1   
     e(  6 -  6) =      8.85882  eV     1   --> B_2  G_4 D_2'  
     e(  7 -  8) =     12.06983  eV     2   --> E    G_5 D_5   
     e(  9 -  9) =     14.31432  eV     1   --> B_2  G_4 D_2'  
     e( 10 - 10) =     15.23477  eV     1   --> A_2  G_2 D_1'  

 **************************************************************************

 **************************************************************************

                    xk=(  -0.60000,   0.00000,   0.00000  )

     Band symmetry, C_4v (4mm)  point group:

     e(  1 -  1) =     -4.36921  eV     1   --> A_1  G_1 D_1   
     e(  2 -  2) =      1.61695  eV     1   --> B_2  G_4 D_2'  
     e(  3 -  4) =      3.81417  eV     2   --> E    G_5 D_5   
     e(  5 -  5) =      6.83074  eV     1   --> A_1  G_1 D_1   
     e(  6 -  6) =      8.38695  eV     1   --> B_2  G_4 D_2'  
     e(  7 -  8) =     12.66674  eV     2   --> E    G_5 D_5   
     e(  9 -  9) =     15.01447  eV     1   --> B_2  G_4 D_2'  
     e( 10 - 10) =     15.59920  eV     1   --> A_2  G_2 D_1'  

 **************************************************************************

 **************************************************************************

                    xk=(  -0.66667,   0.00000,   0.00000  )

     Band symmetry, C_4v (4mm)  point group:

     e(  1 -  1) =     -4.01465  eV     1   --> A_1  G_1 D_1   
     e(  2 -  2) =      1.02210  eV     1   --> B_2  G_4 D_2'  
     e(  3 -  4) =      3.62609  eV     2   --> E    G_5 D_5   
     e(  5 -  5) =      6.69204  eV     1   --> A_1  G_1 D_1   
     e(  6 -  6) =      7.96136  eV     1   --> B_2  G_4 D_2'  
     e(  7 -  8) =     13.26797  eV     2   --> E    G_5 D_5   
     e(  9 -  9) =     15.72002  eV     1   --> B_2  G_4 D_2'  
     e( 10 - 10) =     16.00474  eV     1   --> A_2  G_2 D_1'  

 **************************************************************************

 **************************************************************************

                    xk=(  -0.73333,   0.00000,   0.00000  )

     Band symmetry, C_4v (4mm)  point group:

     e(  1 -  1) =     -3.62688  eV     1   --> A_1  G_1 D_1   
     e(  2 -  2) =      0.43518  eV     1   --> B_2  G_4 D_2'  
     e(  3 -  4) =      3.47054  eV     2   --> E    G_5 D_5   
     e(  5 -  5) =      6.59473  eV     1   --> A_1  G_1 D_1   
     e(  6 -  6) =      7.59047  eV     1   --> B_2  G_4 D_2'  
     e(  7 -  8) =     13.88318  eV     2   --> E    G_5 D_5   
     e(  9 -  9) =     16.41478  eV     1   --> B_2  G_4 D_2'  
     e( 10 - 10) =     16.45360  eV     1   --> A_2  G_2 D_1'  

 **************************************************************************

 **************************************************************************

                    xk=(  -0.80000,   0.00000,   0.00000  )

     Band symmetry, C_4v (4mm)  point group:

     e(  1 -  1) =     -3.20729  eV     1   --> A_1  G_1 D_1   
     e(  2 -  2) =     -0.14150  eV     1   --> B_2  G_4 D_2'  
     e(  3 -  4) =      3.34868  eV     2   --> E    G_5 D_5   
     e(  5 -  5) =      6.54181  eV     1   --> A_1  G_1 D_1   
     e(  6 -  6) =      7.27909  eV     1   --> B_2  G_4 D_2'  
     e(  7 -  8) =     14.50541  eV     2   --> E    G_5 D_5   
     e(  9 -  9) =     16.94434  eV     1   --> A_2  G_2 D_1'  
     e( 10 - 10) =     17.08932  eV     1   --> B_2  G_4 D_2'  

 **************************************************************************

 **************************************************************************

                    xk=(  -0.86667,   0.00000,   0.00000  )

     Band symmetry, C_4v (4mm)  point group:

     e(  1 -  1) =     -2.75770  eV     1   --> A_1  G_1 D_1   
     e(  2 -  2) =     -0.70401  eV     1   --> B_2  G_4 D_2'  
     e(  3 -  4) =      3.26131  eV     2   --> E    G_5 D_5   
     e(  5 -  5) =      6.53595  eV     1   --> A_1  G_1 D_1   
     e(  6 -  6) =      7.01997  eV     1   --> B_2  G_4 D_2'  
     e(  7 -  8) =     15.12407  eV     2   --> E    G_5 D_5   
     e(  9 -  9) =     17.49151  eV     1   --> A_2  G_2 D_1'  
     e( 10 - 10) =     17.73212  eV     1   --> B_2  G_4 D_2'  

 **************************************************************************

 **************************************************************************

                    xk=(  -0.93333,   0.00000,   0.00000  )

     Band symmetry, C_4v (4mm)  point group:

     e(  1 -  1) =     -2.28014  eV     1   --> A_1  G_1 D_1   
     e(  2 -  2) =     -1.25032  eV     1   --> B_2  G_4 D_2'  
     e(  3 -  4) =      3.20864  eV     2   --> E    G_5 D_5   
     e(  5 -  5) =      6.57802  eV     1   --> A_1  G_1 D_1   
     e(  6 -  6) =      6.81897  eV     1   --> B_2  G_4 D_2'  
     e(  7 -  8) =     15.70455  eV     2   --> E    G_5 D_5   
     e(  9 - 10) =     17.42135  eV     2   --> E    G_5 D_5   

 **************************************************************************

 **************************************************************************

                    xk=(  -1.00000,   0.00000,   0.00000  )

     zone border point and non-symmorphic group 
     symmetry decomposition not available

 **************************************************************************

 **************************************************************************

                    xk=(  -0.98333,   0.05000,  -0.00000  )

     point group C_s (m)    
     there are  2 classes
     the character table:

       E     s    
A'     1.00  1.00
A''    1.00 -1.00

     the symmetry operations in each class and the name of the first element:

     E        1
                                                                 
     s        2
                                                                 

     Band symmetry, C_s (m)     point group:

     e(  1 -  1) =     -1.90006  eV     1   --> A'             
     e(  2 -  2) =     -1.64324  eV     1   --> A''            
     e(  3 -  3) =      3.15703  eV     1   --> A'             
     e(  4 -  4) =      3.15914  eV     1   --> A''            
     e(  5 -  5) =      6.70739  eV     1   --> A'             
     e(  6 -  6) =      6.76639  eV     1   --> A''            
     e(  7 -  7) =     15.87478  eV     1   --> A''            
     e(  8 -  8) =     15.94169  eV     1   --> A'             
     e(  9 -  9) =     16.94431  eV     1   --> A'             
     e( 10 - 10) =     17.01623  eV     1   --> A''            

 **************************************************************************

 **************************************************************************

                    xk=(  -0.96667,   0.10000,   0.00000  )

     Band symmetry, C_s (m)     point group:

     e(  1 -  1) =     -2.01361  eV     1   --> A'             
     e(  2 -  2) =     -1.50573  eV     1   --> A''            
     e(  3 -  3) =      3.05935  eV     1   --> A'             
     e(  4 -  4) =      3.07501  eV     1   --> A''            
     e(  5 -  5) =      6.86233  eV     1   --> A'             
     e(  6 -  6) =      6.97425  eV     1   --> A''            
     e(  7 -  7) =     15.36485  eV     1   --> A''            
     e(  8 -  8) =     15.73640  eV     1   --> A'             
     e(  9 -  9) =     16.60947  eV     1   --> A'             
     e( 10 - 10) =     17.00573  eV     1   --> A''            

 **************************************************************************

 **************************************************************************

                    xk=(  -0.95000,   0.15000,  -0.00000  )

     Band symmetry, C_s (m)     point group:

     e(  1 -  1) =     -2.11339  eV     1   --> A'             
     e(  2 -  2) =     -1.36646  eV     1   --> A''            
     e(  3 -  3) =      2.91388  eV     1   --> A'             
     e(  4 -  4) =      2.96252  eV     1   --> A''            
     e(  5 -  5) =      7.12266  eV     1   --> A'             
     e(  6 -  6) =      7.27821  eV     1   --> A''            
     e(  7 -  7) =     14.65948  eV     1   --> A''            
     e(  8 -  8) =     15.43388  eV     1   --> A'             
     e(  9 -  9) =     16.27400  eV     1   --> A'             
     e( 10 - 10) =     17.10027  eV     1   --> A''            

 **************************************************************************

 **************************************************************************

                    xk=(  -0.93333,   0.20000,   0.00000  )

     Band symmetry, C_s (m)     point group:

     e(  1 -  1) =     -2.19908  eV     1   --> A'             
     e(  2 -  2) =     -1.23182  eV     1   --> A''            
     e(  3 -  3) =      2.74030  eV     1   --> A'             
     e(  4 -  4) =      2.84642  eV     1   --> A''            
     e(  5 -  5) =      7.46609  eV     1   --> A'             
     e(  6 -  6) =      7.65780  eV     1   --> A''            
     e(  7 -  7) =     13.88897  eV     1   --> A''            
     e(  8 -  8) =     15.03750  eV     1   --> A'             
     e(  9 -  9) =     15.99777  eV     1   --> A'             
     e( 10 - 10) =     17.20883  eV     1   --> A''            

 **************************************************************************

 **************************************************************************

                    xk=(  -0.91667,   0.25000,   0.00000  )

     Band symmetry, C_s (m)     point group:

     e(  1 -  1) =     -2.26996  eV     1   --> A'             
     e(  2 -  2) =     -1.10865  eV     1   --> A''            
     e(  3 -  3) =      2.55582  eV     1   --> A'             
     e(  4 -  4) =      2.74827  eV     1   --> A''            
     e(  5 -  5) =      7.87402  eV     1   --> A'             
     e(  6 -  6) =      8.09652  eV     1   --> A''            
     e(  7 -  7) =     13.10251  eV     1   --> A''            
     e(  8 -  8) =     14.58005  eV     1   --> A'             
     e(  9 -  9) =     15.77224  eV     1   --> A'             
     e( 10 - 10) =     17.26852  eV     1   --> A''            

 **************************************************************************

 **************************************************************************

                    xk=(  -0.90000,   0.30000,   0.00000  )

     Band symmetry, C_s (m)     point group:

     e(  1 -  1) =     -2.32557  eV     1   --> A'             
     e(  2 -  2) =     -1.00461  eV     1   --> A''            
     e(  3 -  3) =      2.37337  eV     1   --> A'             
     e(  4 -  4) =      2.68539  eV     1   --> A''            
     e(  5 -  5) =      8.33247  eV     1   --> A'             
     e(  6 -  6) =      8.58229  eV     1   --> A''            
     e(  7 -  7) =     12.32327  eV     1   --> A''            
     e(  8 -  8) =     14.09738  eV     1   --> A'             
     e(  9 -  9) =     15.57408  eV     1   --> A'             
     e( 10 - 10) =     17.23063  eV     1   --> A''            

 **************************************************************************

 **************************************************************************

                    xk=(  -0.88333,   0.35000,   0.00000  )

     Band symmetry, C_s (m)     point group:

     e(  1 -  1) =     -2.36637  eV     1   --> A'             
     e(  2 -  2) =     -0.92684  eV     1   --> A''            
     e(  3 -  3) =      2.20188  eV     1   --> A'             
     e(  4 -  4) =      2.67045  eV     1   --> A''            
     e(  5 -  5) =      8.83030  eV     1   --> A'             
     e(  6 -  6) =      9.10187  eV     1   --> A''            
     e(  7 -  7) =     11.56395  eV     1   --> A''            
     e(  8 -  8) =     13.60879  eV     1   --> A'             
     e(  9 -  9) =     15.38440  eV     1   --> A'             
     e( 10 - 10) =     17.08099  eV     1   --> A''            

 **************************************************************************

 **************************************************************************

                    xk=(  -0.86667,   0.40000,   0.00000  )

     Band symmetry, C_s (m)     point group:

     e(  1 -  1) =     -2.39191  eV     1   --> A'             
     e(  2 -  2) =     -0.87998  eV     1   --> A''            
     e(  3 -  3) =      2.04783  eV     1   --> A'             
     e(  4 -  4) =      2.71053  eV     1   --> A''            
     e(  5 -  5) =      9.35928  eV     1   --> A'             
     e(  6 -  6) =      9.62827  eV     1   --> A''            
     e(  7 -  7) =     10.85528  eV     1   --> A''            
     e(  8 -  8) =     13.12933  eV     1   --> A'             
     e(  9 -  9) =     15.19796  eV     1   --> A'             
     e( 10 - 10) =     16.85437  eV     1   --> A''            

 **************************************************************************

 **************************************************************************

                    xk=(  -0.85000,   0.45000,   0.00000  )

     Band symmetry, C_s (m)     point group:

     e(  1 -  1) =     -2.40291  eV     1   --> A'             
     e(  2 -  2) =     -0.86497  eV     1   --> A''            
     e(  3 -  3) =      1.91563  eV     1   --> A'             
     e(  4 -  4) =      2.80588  eV     1   --> A''            
     e(  5 -  5) =      9.85208  eV     1   --> A''            
     e(  6 -  6) =      9.91031  eV     1   --> A'             
     e(  7 -  7) =     10.50661  eV     1   --> A''            
     e(  8 -  8) =     12.66634  eV     1   --> A'             
     e(  9 -  9) =     15.00622  eV     1   --> A'             
     e( 10 - 10) =     16.57002  eV     1   --> A''            

 **************************************************************************

 **************************************************************************

                    xk=(  -0.83333,   0.50000,   0.00000  )

     Band symmetry, C_s (m)     point group:

     e(  1 -  1) =     -2.39970  eV     1   --> A'             
     e(  2 -  2) =     -0.87946  eV     1   --> A''            
     e(  3 -  3) =      1.80864  eV     1   --> A'             
     e(  4 -  4) =      2.95012  eV     1   --> A''            
     e(  5 -  5) =      9.31337  eV     1   --> A''            
     e(  6 -  6) =     10.46948  eV     1   --> A'             
     e(  7 -  7) =     10.98668  eV     1   --> A''            
     e(  8 -  8) =     12.23192  eV     1   --> A'             
     e(  9 -  9) =     14.81045  eV     1   --> A'             
     e( 10 - 10) =     16.23974  eV     1   --> A''            

 **************************************************************************

 **************************************************************************

                    xk=(  -0.81667,   0.55000,  -0.00000  )

     Band symmetry, C_s (m)     point group:

     e(  1 -  1) =     -2.38266  eV     1   --> A'             
     e(  2 -  2) =     -0.91750  eV     1   --> A''            
     e(  3 -  3) =      1.72927  eV     1   --> A'             
     e(  4 -  4) =      3.12917  eV     1   --> A''            
     e(  5 -  5) =      8.70254  eV     1   --> A''            
     e(  6 -  6) =     10.98129  eV     1   --> A'             
     e(  7 -  7) =     11.61100  eV     1   --> A''            
     e(  8 -  8) =     11.88031  eV     1   --> A'             
     e(  9 -  9) =     14.60999  eV     1   --> A'             
     e( 10 - 10) =     15.88263  eV     1   --> A''            

 **************************************************************************

 **************************************************************************

                    xk=(  -0.80000,   0.60000,   0.00000  )

     Band symmetry, C_s (m)     point group:

     e(  1 -  1) =     -2.35294  eV     1   --> A'             
     e(  2 -  2) =     -0.97261  eV     1   --> A''            
     e(  3 -  3) =      1.67924  eV     1   --> A'             
     e(  4 -  4) =      3.32159  eV     1   --> A''            
     e(  5 -  5) =      8.14401  eV     1   --> A''            
     e(  6 -  6) =     11.10857  eV     1   --> A'             
     e(  7 -  7) =     11.94410  eV     1   --> A'             
     e(  8 -  8) =     12.26898  eV     1   --> A''            
     e(  9 -  9) =     14.40644  eV     1   --> A'             
     e( 10 - 10) =     15.51154  eV     1   --> A''            

 **************************************************************************

 **************************************************************************

                    xk=(  -0.78333,   0.65000,  -0.00000  )

     Band symmetry, C_s (m)     point group:

     e(  1 -  1) =     -2.30943  eV     1   --> A'             
     e(  2 -  2) =     -1.03875  eV     1   --> A''            
     e(  3 -  3) =      1.65982  eV     1   --> A'             
     e(  4 -  4) =      3.49635  eV     1   --> A''            
     e(  5 -  5) =      7.67406  eV     1   --> A''            
     e(  6 -  6) =     10.81448  eV     1   --> A'             
     e(  7 -  7) =     12.45731  eV     1   --> A'             
     e(  8 -  8) =     12.94732  eV     1   --> A''            
     e(  9 -  9) =     14.20582  eV     1   --> A'             
     e( 10 - 10) =     15.14249  eV     1   --> A''            

 **************************************************************************

 **************************************************************************

                    xk=(  -0.76667,   0.70000,   0.00000  )

     Band symmetry, C_s (m)     point group:

     e(  1 -  1) =     -2.25317  eV     1   --> A'             
     e(  2 -  2) =     -1.11152  eV     1   --> A''            
     e(  3 -  3) =      1.67171  eV     1   --> A'             
     e(  4 -  4) =      3.61078  eV     1   --> A''            
     e(  5 -  5) =      7.33496  eV     1   --> A''            
     e(  6 -  6) =     10.46377  eV     1   --> A'             
     e(  7 -  7) =     13.03305  eV     1   --> A'             
     e(  8 -  8) =     13.62573  eV     1   --> A''            
     e(  9 -  9) =     14.02664  eV     1   --> A'             
     e( 10 - 10) =     14.78886  eV     1   --> A''            

 **************************************************************************

 **************************************************************************

                    xk=(  -0.75000,   0.75000,   0.00000  )

     point group C_2v (mm2) 
     there are  4 classes
     the character table:

       E     C2    s_v   s_v' 
A_1    1.00  1.00  1.00  1.00
A_2    1.00  1.00 -1.00 -1.00
B_1    1.00 -1.00  1.00 -1.00
B_2    1.00 -1.00 -1.00  1.00

     the symmetry operations in each class and the name of the first element:

     E        1
                                                                 
     C2       2
                                                                 
     s_v      4
                                                                 
     s_v'     3
                                                                 

     Band symmetry, C_2v (mm2)  point group:

     e(  1 -  1) =     -2.18535  eV     1   --> A_1  D_1  S_1  
     e(  2 -  2) =     -1.18845  eV     1   --> B_1  D_3  S_3  
     e(  3 -  3) =      1.71503  eV     1   --> A_1  D_1  S_1  
     e(  4 -  4) =      3.61932  eV     1   --> A_2  D_2  S_2  
     e(  5 -  5) =      7.17148  eV     1   --> B_1  D_3  S_3  
     e(  6 -  6) =     10.11889  eV     1   --> A_1  D_1  S_1  
     e(  7 -  7) =     13.46990  eV     1   --> B_2  D_4  S_4  
     e(  8 -  8) =     14.00226  eV     1   --> A_1  D_1  S_1  
     e(  9 -  9) =     14.14919  eV     1   --> B_1  D_3  S_3  
     e( 10 - 10) =     14.60474  eV     1   --> A_2  D_2  S_2  

 **************************************************************************

 **************************************************************************

                    xk=(  -0.70000,   0.70000,   0.00000  )

     Band symmetry, C_2v (mm2)  point group:

     e(  1 -  1) =     -2.44338  eV     1   --> A_1  D_1  S_1  
     e(  2 -  2) =     -0.93045  eV     1   --> B_1  D_3  S_3  
     e(  3 -  3) =      1.60445  eV     1   --> A_1  D_1  S_1  
     e(  4 -  4) =      3.79937  eV     1   --> A_2  D_2  S_2  
     e(  5 -  5) =      7.38170  eV     1   --> B_1  D_3  S_3  
     e(  6 -  6) =     11.14287  eV     1   --> A_1  D_1  S_1  
     e(  7 -  7) =     12.87151  eV     1   --> B_2  D_4  S_4  
     e(  8 -  8) =     13.39195  eV     1   --> A_1  D_1  S_1  
     e(  9 -  9) =     13.66422  eV     1   --> B_1  D_3  S_3  
     e( 10 - 10) =     14.08031  eV     1   --> A_2  D_2  S_2  

 **************************************************************************

 **************************************************************************

                    xk=(  -0.65000,   0.65000,   0.00000  )

     Band symmetry, C_2v (mm2)  point group:

     e(  1 -  1) =     -2.76320  eV     1   --> A_1  D_1  S_1  
     e(  2 -  2) =     -0.62701  eV     1   --> B_1  D_3  S_3  
     e(  3 -  3) =      1.62211  eV     1   --> A_1  D_1  S_1  
     e(  4 -  4) =      4.00471  eV     1   --> A_2  D_2  S_2  
     e(  5 -  5) =      7.62097  eV     1   --> B_1  D_3  S_3  
     e(  6 -  6) =     12.07501  eV     1   --> A_1  D_1  S_1  
     e(  7 -  7) =     12.30085  eV     1   --> B_2  D_4  S_4  
     e(  8 -  8) =     12.95183  eV     1   --> A_1  D_1  S_1  
     e(  9 -  9) =     13.20234  eV     1   --> B_1  D_3  S_3  
     e( 10 - 10) =     13.60181  eV     1   --> A_2  D_2  S_2  

 **************************************************************************

 **************************************************************************

                    xk=(  -0.60000,   0.60000,   0.00000  )

     Band symmetry, C_2v (mm2)  point group:

     e(  1 -  1) =     -3.12271  eV     1   --> A_1  D_1  S_1  
     e(  2 -  2) =     -0.27877  eV     1   --> B_1  D_3  S_3  
     e(  3 -  3) =      1.75158  eV     1   --> A_1  D_1  S_1  
     e(  4 -  4) =      4.23080  eV     1   --> A_2  D_2  S_2  
     e(  5 -  5) =      7.88262  eV     1   --> B_1  D_3  S_3  
     e(  6 -  6) =     11.76472  eV     1   --> B_2  D_4  S_4  
     e(  7 -  7) =     12.04149  eV     1   --> A_1  D_1  S_1  
     e(  8 -  8) =     12.77422  eV     1   --> B_1  D_3  S_3  
     e(  9 -  9) =     13.17779  eV     1   --> A_2  D_2  S_2  
     e( 10 - 10) =     13.53592  eV     1   --> A_1  D_1  S_1  

 **************************************************************************

 **************************************************************************

                    xk=(  -0.55000,   0.55000,   0.00000  )

     Band symmetry, C_2v (mm2)  point group:

     e(  1 -  1) =     -3.49887  eV     1   --> A_1  D_1  S_1  
     e(  2 -  2) =      0.11486  eV     1   --> B_1  D_3  S_3  
     e(  3 -  3) =      1.97269  eV     1   --> A_1  D_1  S_1  
     e(  4 -  4) =      4.47189  eV     1   --> A_2  D_2  S_2  
     e(  5 -  5) =      8.15747  eV     1   --> B_1  D_3  S_3  
     e(  6 -  6) =     11.26618  eV     1   --> B_2  D_4  S_4  
     e(  7 -  7) =     11.57817  eV     1   --> A_1  D_1  S_1  
     e(  8 -  8) =     12.39480  eV     1   --> B_1  D_3  S_3  
     e(  9 -  9) =     12.81653  eV     1   --> A_2  D_2  S_2  
     e( 10 - 10) =     14.58638  eV     1   --> A_1  D_1  S_1  

 **************************************************************************

 **************************************************************************

                    xk=(  -0.50000,   0.50000,   0.00000  )

     Band symmetry, C_2v (mm2)  point group:

     e(  1 -  1) =     -3.87319  eV     1   --> A_1  D_1  S_1  
     e(  2 -  2) =      0.55228  eV     1   --> B_1  D_3  S_3  
     e(  3 -  3) =      2.26776  eV     1   --> A_1  D_1  S_1  
     e(  4 -  4) =      4.72057  eV     1   --> A_2  D_2  S_2  
     e(  5 -  5) =      8.42952  eV     1   --> B_1  D_3  S_3  
     e(  6 -  6) =     10.80712  eV     1   --> B_2  D_4  S_4  
     e(  7 -  7) =     11.11580  eV     1   --> A_1  D_1  S_1  
     e(  8 -  8) =     12.07400  eV     1   --> B_1  D_3  S_3  
     e(  9 -  9) =     12.52381  eV     1   --> A_2  D_2  S_2  
     e( 10 - 10) =     15.59085  eV     1   --> A_1  D_1  S_1  

 **************************************************************************

 **************************************************************************

                    xk=(  -0.45000,   0.45000,   0.00000  )

     Band symmetry, C_2v (mm2)  point group:

     e(  1 -  1) =     -4.23306  eV     1   --> A_1  D_1  S_1  
     e(  2 -  2) =      1.03285  eV     1   --> B_1  D_3  S_3  
     e(  3 -  3) =      2.62231  eV     1   --> A_1  D_1  S_1  
     e(  4 -  4) =      4.96822  eV     1   --> A_2  D_2  S_2  
     e(  5 -  5) =      8.67719  eV     1   --> B_1  D_3  S_3  
     e(  6 -  6) =     10.38927  eV     1   --> B_2  D_4  S_4  
     e(  7 -  7) =     10.68619  eV     1   --> A_1  D_1  S_1  
     e(  8 -  8) =     11.83093  eV     1   --> B_1  D_3  S_3  
     e(  9 -  9) =     12.31374  eV     1   --> A_2  D_2  S_2  
     e( 10 - 10) =     16.33413  eV     1   --> A_1  D_1  S_1  

 **************************************************************************

 **************************************************************************

                    xk=(  -0.40000,   0.40000,   0.00000  )

     Band symmetry, C_2v (mm2)  point group:

     e(  1 -  1) =     -4.56875  eV     1   --> A_1  D_1  S_1  
     e(  2 -  2) =      1.55496  eV     1   --> B_1  D_3  S_3  
     e(  3 -  3) =      3.02478  eV     1   --> A_1  D_1  S_1  
     e(  4 -  4) =      5.20500  eV     1   --> A_2  D_2  S_2  
     e(  5 -  5) =      8.87481  eV     1   --> B_1  D_3  S_3  
     e(  6 -  6) =     10.01355  eV     1   --> B_2  D_4  S_4  
     e(  7 -  7) =     10.29473  eV     1   --> A_1  D_1  S_1  
     e(  8 -  8) =     11.67931  eV     1   --> B_1  D_3  S_3  
     e(  9 -  9) =     12.19294  eV     1   --> A_2  D_2  S_2  
     e( 10 - 10) =     16.58766  eV     1   --> A_1  D_1  S_1  

 **************************************************************************

 **************************************************************************

                    xk=(  -0.35000,   0.35000,   0.00000  )

     Band symmetry, C_2v (mm2)  point group:

     e(  1 -  1) =     -4.87319  eV     1   --> A_1  D_1  S_1  
     e(  2 -  2) =      2.11766  eV     1   --> B_1  D_3  S_3  
     e(  3 -  3) =      3.46476  eV     1   --> A_1  D_1  S_1  
     e(  4 -  4) =      5.42174  eV     1   --> A_2  D_2  S_2  
     e(  5 -  5) =      8.99924  eV     1   --> B_1  D_3  S_3  
     e(  6 -  6) =      9.68229  eV     1   --> B_2  D_4  S_4  
     e(  7 -  7) =      9.94616  eV     1   --> A_1  D_1  S_1  
     e(  8 -  8) =     11.61771  eV     1   --> B_1  D_3  S_3  
     e(  9 -  9) =     12.17557  eV     1   --> A_2  D_2  S_2  
     e( 10 - 10) =     15.72187  eV     1   --> B_1  D_3  S_3  

 **************************************************************************

 **************************************************************************

                    xk=(  -0.30000,   0.30000,   0.00000  )

     Band symmetry, C_2v (mm2)  point group:

     e(  1 -  1) =     -5.14398  eV     1   --> A_1  D_1  S_1  
     e(  2 -  2) =      2.71563  eV     1   --> B_1  D_3  S_3  
     e(  3 -  3) =      3.93018  eV     1   --> A_1  D_1  S_1  
     e(  4 -  4) =      5.60874  eV     1   --> A_2  D_2  S_2  
     e(  5 -  5) =      9.04135  eV     1   --> B_1  D_3  S_3  
     e(  6 -  6) =      9.39270  eV     1   --> B_2  D_4  S_4  
     e(  7 -  7) =      9.63145  eV     1   --> A_1  D_1  S_1  
     e(  8 -  8) =     11.59673  eV     1   --> B_1  D_3  S_3  
     e(  9 -  9) =     12.25383  eV     1   --> A_2  D_2  S_2  
     e( 10 - 10) =     14.78925  eV     1   --> B_1  D_3  S_3  

 **************************************************************************

 **************************************************************************

                    xk=(  -0.25000,   0.25000,   0.00000  )

     Band symmetry, C_2v (mm2)  point group:

     e(  1 -  1) =     -5.37666  eV     1   --> A_1  D_1  S_1  
     e(  2 -  2) =      3.34623  eV     1   --> B_1  D_3  S_3  
     e(  3 -  3) =      4.40810  eV     1   --> A_1  D_1  S_1  
     e(  4 -  4) =      5.76095  eV     1   --> A_2  D_2  S_2  
     e(  5 -  5) =      9.02168  eV     1   --> B_1  D_3  S_3  
     e(  6 -  6) =      9.14639  eV     1   --> B_2  D_4  S_4  
     e(  7 -  7) =      9.35661  eV     1   --> A_1  D_1  S_1  
     e(  8 -  8) =     11.48417  eV     1   --> B_1  D_3  S_3  
     e(  9 -  9) =     12.43182  eV     1   --> A_2  D_2  S_2  
     e( 10 - 10) =     14.08300  eV     1   --> B_1  D_3  S_3  

 **************************************************************************

 **************************************************************************

                    xk=(  -0.20000,   0.20000,   0.00000  )

     Band symmetry, C_2v (mm2)  point group:

     e(  1 -  1) =     -5.56907  eV     1   --> A_1  D_1  S_1  
     e(  2 -  2) =      4.00109  eV     1   --> B_1  D_3  S_3  
     e(  3 -  3) =      4.88067  eV     1   --> A_1  D_1  S_1  
     e(  4 -  4) =      5.87775  eV     1   --> A_2  D_2  S_2  
     e(  5 -  5) =      8.94510  eV     1   --> B_2  D_4  S_4  
     e(  6 -  6) =      8.96459  eV     1   --> B_1  D_3  S_3  
     e(  7 -  7) =      9.11587  eV     1   --> A_1  D_1  S_1  
     e(  8 -  8) =     11.12144  eV     1   --> B_1  D_3  S_3  
     e(  9 -  9) =     12.70479  eV     1   --> A_2  D_2  S_2  
     e( 10 - 10) =     13.73009  eV     1   --> B_1  D_3  S_3  

 **************************************************************************

 **************************************************************************

                    xk=(  -0.15000,   0.15000,   0.00000  )

     Band symmetry, C_2v (mm2)  point group:

     e(  1 -  1) =     -5.72048  eV     1   --> A_1  D_1  S_1  
     e(  2 -  2) =      4.66370  eV     1   --> B_1  D_3  S_3  
     e(  3 -  3) =      5.32243  eV     1   --> A_1  D_1  S_1  
     e(  4 -  4) =      5.96043  eV     1   --> A_2  D_2  S_2  
     e(  5 -  5) =      8.78703  eV     1   --> B_2  D_4  S_4  
     e(  6 -  6) =      8.88973  eV     1   --> B_1  D_3  S_3  
     e(  7 -  7) =      8.90920  eV     1   --> A_1  D_1  S_1  
     e(  8 -  8) =     10.52244  eV     1   --> B_1  D_3  S_3  
     e(  9 -  9) =     13.04376  eV     1   --> A_2  D_2  S_2  
     e( 10 - 10) =     13.67423  eV     1   --> B_1  D_3  S_3  

 **************************************************************************

 **************************************************************************

                    xk=(  -0.10000,   0.10000,   0.00000  )

     Band symmetry, C_2v (mm2)  point group:

     e(  1 -  1) =     -5.82925  eV     1   --> A_1  D_1  S_1  
     e(  2 -  2) =      5.30155  eV     1   --> B_1  D_3  S_3  
     e(  3 -  3) =      5.69823  eV     1   --> A_1  D_1  S_1  
     e(  4 -  4) =      6.01464  eV     1   --> A_2  D_2  S_2  
     e(  5 -  5) =      8.67380  eV     1   --> B_2  D_4  S_4  
     e(  6 -  6) =      8.74224  eV     1   --> A_1  D_1  S_1  
     e(  7 -  7) =      8.80120  eV     1   --> B_1  D_3  S_3  
     e(  8 -  8) =      9.87195  eV     1   --> B_1  D_3  S_3  
     e(  9 -  9) =     13.40345  eV     1   --> A_2  D_2  S_2  
     e( 10 - 10) =     13.74505  eV     1   --> B_1  D_3  S_3  

 **************************************************************************

 **************************************************************************

                    xk=(  -0.05000,   0.05000,   0.00000  )

     Band symmetry, C_2v (mm2)  point group:

     e(  1 -  1) =     -5.89483  eV     1   --> A_1  D_1  S_1  
     e(  2 -  2) =      5.82828  eV     1   --> B_1  D_3  S_3  
     e(  3 -  3) =      5.95939  eV     1   --> A_1  D_1  S_1  
     e(  4 -  4) =      6.04487  eV     1   --> A_2  D_2  S_2  
     e(  5 -  5) =      8.60641  eV     1   --> B_2  D_4  S_4  
     e(  6 -  6) =      8.62657  eV     1   --> A_1  D_1  S_1  
     e(  7 -  7) =      8.67804  eV     1   --> B_1  D_3  S_3  
     e(  8 -  8) =      9.38045  eV     1   --> B_1  D_3  S_3  
     e(  9 -  9) =     13.71769  eV     1   --> A_2  D_2  S_2  
     e( 10 - 10) =     13.81963  eV     1   --> B_1  D_3  S_3  

 **************************************************************************

 **************************************************************************

                    xk=(   0.00000,   0.00000,   0.00000  )

     point group O_h (m-3m) 
     there are 10 classes
     the character table:

       E     8C3   3C2   6C4   6C2'  i     8S6   3s_h  6S4   6s_d 
A_1g   1.00  1.00  1.00  1.00  1.00  1.00  1.00  1.00  1.00  1.00
A_2g   1.00  1.00  1.00 -1.00 -1.00  1.00  1.00  1.00 -1.00 -1.00
E_g    2.00 -1.00  2.00  0.00  0.00  2.00 -1.00  2.00  0.00  0.00
T_1g   3.00  0.00 -1.00  1.00 -1.00  3.00  0.00 -1.00  1.00 -1.00
T_2g   3.00  0.00 -1.00 -1.00  1.00  3.00  0.00 -1.00 -1.00  1.00
A_1u   1.00  1.00  1.00  1.00  1.00 -1.00 -1.00 -1.00 -1.00 -1.00
A_2u   1.00  1.00  1.00 -1.00 -1.00 -1.00 -1.00 -1.00  1.00  1.00
E_u    2.00 -1.00  2.00  0.00  0.00 -2.00  1.00 -2.00  0.00  0.00
T_1u   3.00  0.00 -1.00  1.00 -1.00 -3.00  0.00  1.00 -1.00  1.00
T_2u   3.00  0.00 -1.00 -1.00  1.00 -3.00  0.00  1.00  1.00 -1.00

     the symmetry operations in each class and the name of the first element:

     E        1
                                                                 
     8C3     17   19   20   18   24   21   22   23
                                                                 
     3C2      2    4    3
                                                                 
     6C4      7    8   15   16   12   11
                                                                 
     6C2'     5    6   14   13   10    9
                                                                 
     i       25
                                                                 
     8S6     41   43   44   42   48   45   46   47
                                                                 
     3s_h    26   28   27
                                                                 
     6S4     31   32   39   40   36   35
                                                                 
     6s_d    29   30   38   37   34   33
                                                                 

     Band symmetry, O_h (m-3m)  point group:

     e(  1 -  1) =     -5.91673  eV     1   --> A_1g G_1   G_1+
     e(  2 -  4) =      6.05452  eV     3   --> T_2g G_25' G_5+
     e(  5 -  7) =      8.58394  eV     3   --> T_1u G_15  G_4-
     e(  8 -  8) =      9.21591  eV     1   --> A_2u G_2'  G_2-
     e(  9 -  9) =     13.72463  eV     1   --> A_1g G_1   G_1+
     e( 10 - 10) =     13.84954  eV     1   -->   ?

 **************************************************************************
 
     BANDS        :      0.83s CPU      0.93s WALL

 
   This run was terminated on:  11:38:27   2Nov2022            

=------------------------------------------------------------------------------=
   JOB DONE.
=------------------------------------------------------------------------------=
