
     Program PWSCF v.7.1 starts on  2Nov2022 at 11:38:23 

     This program is part of the open-source Quantum ESPRESSO suite
     for quantum simulation of materials; please cite
         "P. Giannozzi et al., J. Phys.:Condens. Matter 21 395502 (2009);
         "P. Giannozzi et al., J. Phys.:Condens. Matter 29 465901 (2017);
         "P. Giannozzi et al., J. Chem. Phys. 152 154105 (2020);
          URL http://www.quantum-espresso.org", 
     in publications or presentations arising from this work. More details at
     http://www.quantum-espresso.org/quote

     Parallel version (MPI), running on     1 processors

     MPI processes distributed on     1 nodes
     391 MiB available memory on the printing compute node when the environment starts
 
     Reading input from bands.pwi

     Current dimensions of program PWSCF are:
     Max number of different atomic species (ntypx) = 10
     Max number of k-points (npk) =  40000
     Max angular momentum in pseudopotentials (lmaxx) =  4

     Atomic positions and unit cell read from directory:
     ./out/si.save/
     Atomic positions from file used, from input discarded
 
 
     Subspace diagonalization in iterative solution of the eigenvalue problem:
     a serial algorithm will be used

 
     G-vector sticks info
     --------------------
     sticks:   dense  smooth     PW     G-vecs:    dense   smooth      PW
     Sum         295     295     91                 3287     3287     609
 
     Using Slab Decomposition
 


     bravais-lattice index     =            2
     lattice parameter (alat)  =      10.2622  a.u.
     unit-cell volume          =     270.1851 (a.u.)^3
     number of atoms/cell      =            2
     number of atomic types    =            1
     number of electrons       =         8.00
     number of Kohn-Sham states=           10
     kinetic-energy cutoff     =      20.0000  Ry
     charge density cutoff     =      80.0000  Ry
     Exchange-correlation= SLA  PW   NOGX NOGC
                           (   1   4   0   0   0   0   0)

     celldm(1)=  10.262200  celldm(2)=   0.000000  celldm(3)=   0.000000
     celldm(4)=   0.000000  celldm(5)=   0.000000  celldm(6)=   0.000000

     crystal axes: (cart. coord. in units of alat)
               a(1) = (  -0.500000   0.000000   0.500000 )  
               a(2) = (   0.000000   0.500000   0.500000 )  
               a(3) = (  -0.500000   0.500000   0.000000 )  

     reciprocal axes: (cart. coord. in units 2 pi/alat)
               b(1) = ( -1.000000 -1.000000  1.000000 )  
               b(2) = (  1.000000  1.000000  1.000000 )  
               b(3) = ( -1.000000  1.000000 -1.000000 )  


     PseudoPot. # 1 for Si read from file:
     ../../../files/pseudo/Si.upf
     MD5 check sum: 9e2d726316af3d4752eea8ab0afbb951
     Pseudo is Norm-conserving + core correction, Zval =  4.0
     Generated using ONCVPSP code by D. R. Hamann
     Using radial grid of 1510 points,  6 beta functions with: 
                l(1) =   0
                l(2) =   0
                l(3) =   1
                l(4) =   1
                l(5) =   2
                l(6) =   2

     atomic species   valence    mass     pseudopotential
        Si             4.00    28.08500     Si( 1.00)

     48 Sym. Ops., with inversion, found (24 have fractional translation)


                                    s                        frac. trans.

      isym =  1     identity                                     

 cryst.   s( 1) = (     1          0          0      )
                  (     0          1          0      )
                  (     0          0          1      )

 cart.    s( 1) = (  1.0000000  0.0000000  0.0000000 )
                  (  0.0000000  1.0000000  0.0000000 )
                  (  0.0000000  0.0000000  1.0000000 )


      isym =  2     180 deg rotation - cart. axis [0,0,1]        

 cryst.   s( 2) = (     0          1         -1      )
                  (     1          0         -1      )
                  (     0          0         -1      )

 cart.    s( 2) = ( -1.0000000  0.0000000  0.0000000 )
                  (  0.0000000 -1.0000000  0.0000000 )
                  (  0.0000000  0.0000000  1.0000000 )


      isym =  3     180 deg rotation - cart. axis [0,1,0]        

 cryst.   s( 3) = (    -1          0          0      )
                  (    -1          0          1      )
                  (    -1          1          0      )

 cart.    s( 3) = ( -1.0000000  0.0000000  0.0000000 )
                  (  0.0000000  1.0000000  0.0000000 )
                  (  0.0000000  0.0000000 -1.0000000 )


      isym =  4     180 deg rotation - cart. axis [1,0,0]        

 cryst.   s( 4) = (     0         -1          1      )
                  (     0         -1          0      )
                  (     1         -1          0      )

 cart.    s( 4) = (  1.0000000  0.0000000  0.0000000 )
                  (  0.0000000 -1.0000000  0.0000000 )
                  (  0.0000000  0.0000000 -1.0000000 )


      isym =  5     180 deg rotation - cart. axis [1,1,0]        

 cryst.   s( 5) = (     0         -1          0      )    f =( -0.2500000 )
                  (    -1          0          0      )       ( -0.2500000 )
                  (     0          0         -1      )       ( -0.2500000 )

 cart.    s( 5) = (  0.0000000  1.0000000  0.0000000 )    f =(  0.2500000 )
                  (  1.0000000  0.0000000  0.0000000 )       ( -0.2500000 )
                  (  0.0000000  0.0000000 -1.0000000 )       ( -0.2500000 )


      isym =  6     180 deg rotation - cart. axis [1,-1,0]       

 cryst.   s( 6) = (    -1          0          1      )    f =( -0.2500000 )
                  (     0         -1          1      )       ( -0.2500000 )
                  (     0          0          1      )       ( -0.2500000 )

 cart.    s( 6) = (  0.0000000 -1.0000000  0.0000000 )    f =(  0.2500000 )
                  ( -1.0000000  0.0000000  0.0000000 )       ( -0.2500000 )
                  (  0.0000000  0.0000000 -1.0000000 )       ( -0.2500000 )


      isym =  7      90 deg rotation - cart. axis [0,0,-1]       

 cryst.   s( 7) = (     0          1          0      )    f =( -0.2500000 )
                  (     0          1         -1      )       ( -0.2500000 )
                  (    -1          1          0      )       ( -0.2500000 )

 cart.    s( 7) = (  0.0000000  1.0000000  0.0000000 )    f =(  0.2500000 )
                  ( -1.0000000  0.0000000  0.0000000 )       ( -0.2500000 )
                  (  0.0000000  0.0000000  1.0000000 )       ( -0.2500000 )


      isym =  8      90 deg rotation - cart. axis [0,0,1]        

 cryst.   s( 8) = (     1          0         -1      )    f =( -0.2500000 )
                  (     1          0          0      )       ( -0.2500000 )
                  (     1         -1          0      )       ( -0.2500000 )

 cart.    s( 8) = (  0.0000000 -1.0000000  0.0000000 )    f =(  0.2500000 )
                  (  1.0000000  0.0000000  0.0000000 )       ( -0.2500000 )
                  (  0.0000000  0.0000000  1.0000000 )       ( -0.2500000 )


      isym =  9     180 deg rotation - cart. axis [1,0,1]        

 cryst.   s( 9) = (    -1          0          0      )    f =( -0.2500000 )
                  (     0          0         -1      )       ( -0.2500000 )
                  (     0         -1          0      )       ( -0.2500000 )

 cart.    s( 9) = (  0.0000000  0.0000000  1.0000000 )    f =(  0.2500000 )
                  (  0.0000000 -1.0000000  0.0000000 )       ( -0.2500000 )
                  (  1.0000000  0.0000000  0.0000000 )       ( -0.2500000 )


      isym = 10     180 deg rotation - cart. axis [-1,0,1]       

 cryst.   s(10) = (     1          0          0      )    f =( -0.2500000 )
                  (     1         -1          0      )       ( -0.2500000 )
                  (     1          0         -1      )       ( -0.2500000 )

 cart.    s(10) = (  0.0000000  0.0000000 -1.0000000 )    f =(  0.2500000 )
                  (  0.0000000 -1.0000000  0.0000000 )       ( -0.2500000 )
                  ( -1.0000000  0.0000000  0.0000000 )       ( -0.2500000 )


      isym = 11      90 deg rotation - cart. axis [0,1,0]        

 cryst.   s(11) = (     0          1         -1      )    f =( -0.2500000 )
                  (    -1          1          0      )       ( -0.2500000 )
                  (     0          1          0      )       ( -0.2500000 )

 cart.    s(11) = (  0.0000000  0.0000000  1.0000000 )    f =(  0.2500000 )
                  (  0.0000000  1.0000000  0.0000000 )       ( -0.2500000 )
                  ( -1.0000000  0.0000000  0.0000000 )       ( -0.2500000 )


      isym = 12      90 deg rotation - cart. axis [0,-1,0]       

 cryst.   s(12) = (     0         -1          1      )    f =( -0.2500000 )
                  (     0          0          1      )       ( -0.2500000 )
                  (    -1          0          1      )       ( -0.2500000 )

 cart.    s(12) = (  0.0000000  0.0000000 -1.0000000 )    f =(  0.2500000 )
                  (  0.0000000  1.0000000  0.0000000 )       ( -0.2500000 )
                  (  1.0000000  0.0000000  0.0000000 )       ( -0.2500000 )


      isym = 13     180 deg rotation - cart. axis [0,1,1]        

 cryst.   s(13) = (    -1          1          0      )    f =( -0.2500000 )
                  (     0          1          0      )       ( -0.2500000 )
                  (     0          1         -1      )       ( -0.2500000 )

 cart.    s(13) = ( -1.0000000  0.0000000  0.0000000 )    f =(  0.2500000 )
                  (  0.0000000  0.0000000  1.0000000 )       ( -0.2500000 )
                  (  0.0000000  1.0000000  0.0000000 )       ( -0.2500000 )


      isym = 14     180 deg rotation - cart. axis [0,1,-1]       

 cryst.   s(14) = (     0          0         -1      )    f =( -0.2500000 )
                  (     0         -1          0      )       ( -0.2500000 )
                  (    -1          0          0      )       ( -0.2500000 )

 cart.    s(14) = ( -1.0000000  0.0000000  0.0000000 )    f =(  0.2500000 )
                  (  0.0000000  0.0000000 -1.0000000 )       ( -0.2500000 )
                  (  0.0000000 -1.0000000  0.0000000 )       ( -0.2500000 )


      isym = 15      90 deg rotation - cart. axis [-1,0,0]       

 cryst.   s(15) = (     0          0          1      )    f =( -0.2500000 )
                  (    -1          0          1      )       ( -0.2500000 )
                  (     0         -1          1      )       ( -0.2500000 )

 cart.    s(15) = (  1.0000000  0.0000000  0.0000000 )    f =(  0.2500000 )
                  (  0.0000000  0.0000000  1.0000000 )       ( -0.2500000 )
                  (  0.0000000 -1.0000000  0.0000000 )       ( -0.2500000 )


      isym = 16      90 deg rotation - cart. axis [1,0,0]        

 cryst.   s(16) = (     1         -1          0      )    f =( -0.2500000 )
                  (     1          0         -1      )       ( -0.2500000 )
                  (     1          0          0      )       ( -0.2500000 )

 cart.    s(16) = (  1.0000000  0.0000000  0.0000000 )    f =(  0.2500000 )
                  (  0.0000000  0.0000000 -1.0000000 )       ( -0.2500000 )
                  (  0.0000000  1.0000000  0.0000000 )       ( -0.2500000 )


      isym = 17     120 deg rotation - cart. axis [-1,-1,-1]     

 cryst.   s(17) = (    -1          0          1      )
                  (    -1          1          0      )
                  (    -1          0          0      )

 cart.    s(17) = (  0.0000000  1.0000000  0.0000000 )
                  (  0.0000000  0.0000000  1.0000000 )
                  (  1.0000000  0.0000000  0.0000000 )


      isym = 18     120 deg rotation - cart. axis [-1,1,1]       

 cryst.   s(18) = (     0          1          0      )
                  (     0          0          1      )
                  (     1          0          0      )

 cart.    s(18) = (  0.0000000 -1.0000000  0.0000000 )
                  (  0.0000000  0.0000000  1.0000000 )
                  ( -1.0000000  0.0000000  0.0000000 )


      isym = 19     120 deg rotation - cart. axis [1,1,-1]       

 cryst.   s(19) = (     1          0         -1      )
                  (     0          0         -1      )
                  (     0          1         -1      )

 cart.    s(19) = (  0.0000000  1.0000000  0.0000000 )
                  (  0.0000000  0.0000000 -1.0000000 )
                  ( -1.0000000  0.0000000  0.0000000 )


      isym = 20     120 deg rotation - cart. axis [1,-1,1]       

 cryst.   s(20) = (     0         -1          0      )
                  (     1         -1          0      )
                  (     0         -1          1      )

 cart.    s(20) = (  0.0000000 -1.0000000  0.0000000 )
                  (  0.0000000  0.0000000 -1.0000000 )
                  (  1.0000000  0.0000000  0.0000000 )


      isym = 21     120 deg rotation - cart. axis [1,1,1]        

 cryst.   s(21) = (     0          0         -1      )
                  (     0          1         -1      )
                  (     1          0         -1      )

 cart.    s(21) = (  0.0000000  0.0000000  1.0000000 )
                  (  1.0000000  0.0000000  0.0000000 )
                  (  0.0000000  1.0000000  0.0000000 )


      isym = 22     120 deg rotation - cart. axis [-1,1,-1]      

 cryst.   s(22) = (    -1          1          0      )
                  (    -1          0          0      )
                  (    -1          0          1      )

 cart.    s(22) = (  0.0000000  0.0000000  1.0000000 )
                  ( -1.0000000  0.0000000  0.0000000 )
                  (  0.0000000 -1.0000000  0.0000000 )


      isym = 23     120 deg rotation - cart. axis [1,-1,-1]      

 cryst.   s(23) = (     0          0          1      )
                  (     1          0          0      )
                  (     0          1          0      )

 cart.    s(23) = (  0.0000000  0.0000000 -1.0000000 )
                  ( -1.0000000  0.0000000  0.0000000 )
                  (  0.0000000  1.0000000  0.0000000 )


      isym = 24     120 deg rotation - cart. axis [-1,-1,1]      

 cryst.   s(24) = (     1         -1          0      )
                  (     0         -1          1      )
                  (     0         -1          0      )

 cart.    s(24) = (  0.0000000  0.0000000 -1.0000000 )
                  (  1.0000000  0.0000000  0.0000000 )
                  (  0.0000000 -1.0000000  0.0000000 )


      isym = 25     inversion                                    

 cryst.   s(25) = (    -1          0          0      )    f =( -0.2500000 )
                  (     0         -1          0      )       ( -0.2500000 )
                  (     0          0         -1      )       ( -0.2500000 )

 cart.    s(25) = ( -1.0000000  0.0000000  0.0000000 )    f =(  0.2500000 )
                  (  0.0000000 -1.0000000  0.0000000 )       ( -0.2500000 )
                  (  0.0000000  0.0000000 -1.0000000 )       ( -0.2500000 )


      isym = 26     inv. 180 deg rotation - cart. axis [0,0,1]   

 cryst.   s(26) = (     0         -1          1      )    f =( -0.2500000 )
                  (    -1          0          1      )       ( -0.2500000 )
                  (     0          0          1      )       ( -0.2500000 )

 cart.    s(26) = (  1.0000000  0.0000000  0.0000000 )    f =(  0.2500000 )
                  (  0.0000000  1.0000000  0.0000000 )       ( -0.2500000 )
                  (  0.0000000  0.0000000 -1.0000000 )       ( -0.2500000 )


      isym = 27     inv. 180 deg rotation - cart. axis [0,1,0]   

 cryst.   s(27) = (     1          0          0      )    f =( -0.2500000 )
                  (     1          0         -1      )       ( -0.2500000 )
                  (     1         -1          0      )       ( -0.2500000 )

 cart.    s(27) = (  1.0000000  0.0000000  0.0000000 )    f =(  0.2500000 )
                  (  0.0000000 -1.0000000  0.0000000 )       ( -0.2500000 )
                  (  0.0000000  0.0000000  1.0000000 )       ( -0.2500000 )


      isym = 28     inv. 180 deg rotation - cart. axis [1,0,0]   

 cryst.   s(28) = (     0          1         -1      )    f =( -0.2500000 )
                  (     0          1          0      )       ( -0.2500000 )
                  (    -1          1          0      )       ( -0.2500000 )

 cart.    s(28) = ( -1.0000000  0.0000000  0.0000000 )    f =(  0.2500000 )
                  (  0.0000000  1.0000000  0.0000000 )       ( -0.2500000 )
                  (  0.0000000  0.0000000  1.0000000 )       ( -0.2500000 )


      isym = 29     inv. 180 deg rotation - cart. axis [1,1,0]   

 cryst.   s(29) = (     0          1          0      )
                  (     1          0          0      )
                  (     0          0          1      )

 cart.    s(29) = (  0.0000000 -1.0000000  0.0000000 )
                  ( -1.0000000  0.0000000  0.0000000 )
                  (  0.0000000  0.0000000  1.0000000 )


      isym = 30     inv. 180 deg rotation - cart. axis [1,-1,0]  

 cryst.   s(30) = (     1          0         -1      )
                  (     0          1         -1      )
                  (     0          0         -1      )

 cart.    s(30) = (  0.0000000  1.0000000  0.0000000 )
                  (  1.0000000  0.0000000  0.0000000 )
                  (  0.0000000  0.0000000  1.0000000 )


      isym = 31     inv.  90 deg rotation - cart. axis [0,0,-1]  

 cryst.   s(31) = (     0         -1          0      )
                  (     0         -1          1      )
                  (     1         -1          0      )

 cart.    s(31) = (  0.0000000 -1.0000000  0.0000000 )
                  (  1.0000000  0.0000000  0.0000000 )
                  (  0.0000000  0.0000000 -1.0000000 )


      isym = 32     inv.  90 deg rotation - cart. axis [0,0,1]   

 cryst.   s(32) = (    -1          0          1      )
                  (    -1          0          0      )
                  (    -1          1          0      )

 cart.    s(32) = (  0.0000000  1.0000000  0.0000000 )
                  ( -1.0000000  0.0000000  0.0000000 )
                  (  0.0000000  0.0000000 -1.0000000 )


      isym = 33     inv. 180 deg rotation - cart. axis [1,0,1]   

 cryst.   s(33) = (     1          0          0      )
                  (     0          0          1      )
                  (     0          1          0      )

 cart.    s(33) = (  0.0000000  0.0000000 -1.0000000 )
                  (  0.0000000  1.0000000  0.0000000 )
                  ( -1.0000000  0.0000000  0.0000000 )


      isym = 34     inv. 180 deg rotation - cart. axis [-1,0,1]  

 cryst.   s(34) = (    -1          0          0      )
                  (    -1          1          0      )
                  (    -1          0          1      )

 cart.    s(34) = (  0.0000000  0.0000000  1.0000000 )
                  (  0.0000000  1.0000000  0.0000000 )
                  (  1.0000000  0.0000000  0.0000000 )


      isym = 35     inv.  90 deg rotation - cart. axis [0,1,0]   

 cryst.   s(35) = (     0         -1          1      )
                  (     1         -1          0      )
                  (     0         -1          0      )

 cart.    s(35) = (  0.0000000  0.0000000 -1.0000000 )
                  (  0.0000000 -1.0000000  0.0000000 )
                  (  1.0000000  0.0000000  0.0000000 )


      isym = 36     inv.  90 deg rotation - cart. axis [0,-1,0]  

 cryst.   s(36) = (     0          1         -1      )
                  (     0          0         -1      )
                  (     1          0         -1      )

 cart.    s(36) = (  0.0000000  0.0000000  1.0000000 )
                  (  0.0000000 -1.0000000  0.0000000 )
                  ( -1.0000000  0.0000000  0.0000000 )


      isym = 37     inv. 180 deg rotation - cart. axis [0,1,1]   

 cryst.   s(37) = (     1         -1          0      )
                  (     0         -1          0      )
                  (     0         -1          1      )

 cart.    s(37) = (  1.0000000  0.0000000  0.0000000 )
                  (  0.0000000  0.0000000 -1.0000000 )
                  (  0.0000000 -1.0000000  0.0000000 )


      isym = 38     inv. 180 deg rotation - cart. axis [0,1,-1]  

 cryst.   s(38) = (     0          0          1      )
                  (     0          1          0      )
                  (     1          0          0      )

 cart.    s(38) = (  1.0000000  0.0000000  0.0000000 )
                  (  0.0000000  0.0000000  1.0000000 )
                  (  0.0000000  1.0000000  0.0000000 )


      isym = 39     inv.  90 deg rotation - cart. axis [-1,0,0]  

 cryst.   s(39) = (     0          0         -1      )
                  (     1          0         -1      )
                  (     0          1         -1      )

 cart.    s(39) = ( -1.0000000  0.0000000  0.0000000 )
                  (  0.0000000  0.0000000 -1.0000000 )
                  (  0.0000000  1.0000000  0.0000000 )


      isym = 40     inv.  90 deg rotation - cart. axis [1,0,0]   

 cryst.   s(40) = (    -1          1          0      )
                  (    -1          0          1      )
                  (    -1          0          0      )

 cart.    s(40) = ( -1.0000000  0.0000000  0.0000000 )
                  (  0.0000000  0.0000000  1.0000000 )
                  (  0.0000000 -1.0000000  0.0000000 )


      isym = 41     inv. 120 deg rotation - cart. axis [-1,-1,-1]

 cryst.   s(41) = (     1          0         -1      )    f =( -0.2500000 )
                  (     1         -1          0      )       ( -0.2500000 )
                  (     1          0          0      )       ( -0.2500000 )

 cart.    s(41) = (  0.0000000 -1.0000000  0.0000000 )    f =(  0.2500000 )
                  (  0.0000000  0.0000000 -1.0000000 )       ( -0.2500000 )
                  ( -1.0000000  0.0000000  0.0000000 )       ( -0.2500000 )


      isym = 42     inv. 120 deg rotation - cart. axis [-1,1,1]  

 cryst.   s(42) = (     0         -1          0      )    f =( -0.2500000 )
                  (     0          0         -1      )       ( -0.2500000 )
                  (    -1          0          0      )       ( -0.2500000 )

 cart.    s(42) = (  0.0000000  1.0000000  0.0000000 )    f =(  0.2500000 )
                  (  0.0000000  0.0000000 -1.0000000 )       ( -0.2500000 )
                  (  1.0000000  0.0000000  0.0000000 )       ( -0.2500000 )


      isym = 43     inv. 120 deg rotation - cart. axis [1,1,-1]  

 cryst.   s(43) = (    -1          0          1      )    f =( -0.2500000 )
                  (     0          0          1      )       ( -0.2500000 )
                  (     0         -1          1      )       ( -0.2500000 )

 cart.    s(43) = (  0.0000000 -1.0000000  0.0000000 )    f =(  0.2500000 )
                  (  0.0000000  0.0000000  1.0000000 )       ( -0.2500000 )
                  (  1.0000000  0.0000000  0.0000000 )       ( -0.2500000 )


      isym = 44     inv. 120 deg rotation - cart. axis [1,-1,1]  

 cryst.   s(44) = (     0          1          0      )    f =( -0.2500000 )
                  (    -1          1          0      )       ( -0.2500000 )
                  (     0          1         -1      )       ( -0.2500000 )

 cart.    s(44) = (  0.0000000  1.0000000  0.0000000 )    f =(  0.2500000 )
                  (  0.0000000  0.0000000  1.0000000 )       ( -0.2500000 )
                  ( -1.0000000  0.0000000  0.0000000 )       ( -0.2500000 )


      isym = 45     inv. 120 deg rotation - cart. axis [1,1,1]   

 cryst.   s(45) = (     0          0          1      )    f =( -0.2500000 )
                  (     0         -1          1      )       ( -0.2500000 )
                  (    -1          0          1      )       ( -0.2500000 )

 cart.    s(45) = (  0.0000000  0.0000000 -1.0000000 )    f =(  0.2500000 )
                  ( -1.0000000  0.0000000  0.0000000 )       ( -0.2500000 )
                  (  0.0000000 -1.0000000  0.0000000 )       ( -0.2500000 )


      isym = 46     inv. 120 deg rotation - cart. axis [-1,1,-1] 

 cryst.   s(46) = (     1         -1          0      )    f =( -0.2500000 )
                  (     1          0          0      )       ( -0.2500000 )
                  (     1          0         -1      )       ( -0.2500000 )

 cart.    s(46) = (  0.0000000  0.0000000 -1.0000000 )    f =(  0.2500000 )
                  (  1.0000000  0.0000000  0.0000000 )       ( -0.2500000 )
                  (  0.0000000  1.0000000  0.0000000 )       ( -0.2500000 )


      isym = 47     inv. 120 deg rotation - cart. axis [1,-1,-1] 

 cryst.   s(47) = (     0          0         -1      )    f =( -0.2500000 )
                  (    -1          0          0      )       ( -0.2500000 )
                  (     0         -1          0      )       ( -0.2500000 )

 cart.    s(47) = (  0.0000000  0.0000000  1.0000000 )    f =(  0.2500000 )
                  (  1.0000000  0.0000000  0.0000000 )       ( -0.2500000 )
                  (  0.0000000 -1.0000000  0.0000000 )       ( -0.2500000 )


      isym = 48     inv. 120 deg rotation - cart. axis [-1,-1,1] 

 cryst.   s(48) = (    -1          1          0      )    f =( -0.2500000 )
                  (     0          1         -1      )       ( -0.2500000 )
                  (     0          1          0      )       ( -0.2500000 )

 cart.    s(48) = (  0.0000000  0.0000000  1.0000000 )    f =(  0.2500000 )
                  ( -1.0000000  0.0000000  0.0000000 )       ( -0.2500000 )
                  (  0.0000000  1.0000000  0.0000000 )       ( -0.2500000 )


     point group O_h (m-3m) 
     there are 10 classes
     the character table:

       E     8C3   3C2   6C4   6C2'  i     8S6   3s_h  6S4   6s_d 
A_1g   1.00  1.00  1.00  1.00  1.00  1.00  1.00  1.00  1.00  1.00
A_2g   1.00  1.00  1.00 -1.00 -1.00  1.00  1.00  1.00 -1.00 -1.00
E_g    2.00 -1.00  2.00  0.00  0.00  2.00 -1.00  2.00  0.00  0.00
T_1g   3.00  0.00 -1.00  1.00 -1.00  3.00  0.00 -1.00  1.00 -1.00
T_2g   3.00  0.00 -1.00 -1.00  1.00  3.00  0.00 -1.00 -1.00  1.00
A_1u   1.00  1.00  1.00  1.00  1.00 -1.00 -1.00 -1.00 -1.00 -1.00
A_2u   1.00  1.00  1.00 -1.00 -1.00 -1.00 -1.00 -1.00  1.00  1.00
E_u    2.00 -1.00  2.00  0.00  0.00 -2.00  1.00 -2.00  0.00  0.00
T_1u   3.00  0.00 -1.00  1.00 -1.00 -3.00  0.00  1.00 -1.00  1.00
T_2u   3.00  0.00 -1.00 -1.00  1.00 -3.00  0.00  1.00  1.00 -1.00

     the symmetry operations in each class and the name of the first element:

     E        1
          identity                                               
     8C3     17   19   20   18   24   21   22   23
          120 deg rotation - cart. axis [-1,-1,-1]               
     3C2      2    4    3
          180 deg rotation - cart. axis [0,0,1]                  
     6C4      7    8   15   16   12   11
           90 deg rotation - cart. axis [0,0,-1]                 
     6C2'     5    6   14   13   10    9
          180 deg rotation - cart. axis [1,1,0]                  
     i       25
          inversion                                              
     8S6     41   43   44   42   48   45   46   47
          inv. 120 deg rotation - cart. axis [-1,-1,-1]          
     3s_h    26   28   27
          inv. 180 deg rotation - cart. axis [0,0,1]             
     6S4     31   32   39   40   36   35
          inv.  90 deg rotation - cart. axis [0,0,-1]            
     6s_d    29   30   38   37   34   33
          inv. 180 deg rotation - cart. axis [1,1,0]             

   Cartesian axes

     site n.     atom                  positions (alat units)
         1           Si  tau(   1) = (   0.0000000   0.0000000   0.0000000  )
         2           Si  tau(   2) = (  -0.2500000   0.2500000   0.2500000  )

   Crystallographic axes

     site n.     atom                  positions (cryst. coord.)
         1           Si  tau(   1) = (  0.0000000  0.0000000  0.0000000  )
         2           Si  tau(   2) = (  0.2500000  0.2500000  0.2500000  )

     number of k points=    61
                       cart. coord. in units 2pi/alat
        k(    1) = (  -0.5000000   0.5000000   0.5000000), wk =   0.0327869
        k(    2) = (  -0.4666667   0.4666667   0.4666667), wk =   0.0327869
        k(    3) = (  -0.4333333   0.4333333   0.4333333), wk =   0.0327869
        k(    4) = (  -0.4000000   0.4000000   0.4000000), wk =   0.0327869
        k(    5) = (  -0.3666667   0.3666667   0.3666667), wk =   0.0327869
        k(    6) = (  -0.3333333   0.3333333   0.3333333), wk =   0.0327869
        k(    7) = (  -0.3000000   0.3000000   0.3000000), wk =   0.0327869
        k(    8) = (  -0.2666667   0.2666667   0.2666667), wk =   0.0327869
        k(    9) = (  -0.2333333   0.2333333   0.2333333), wk =   0.0327869
        k(   10) = (  -0.2000000   0.2000000   0.2000000), wk =   0.0327869
        k(   11) = (  -0.1666667   0.1666667   0.1666667), wk =   0.0327869
        k(   12) = (  -0.1333333   0.1333333   0.1333333), wk =   0.0327869
        k(   13) = (  -0.1000000   0.1000000   0.1000000), wk =   0.0327869
        k(   14) = (  -0.0666667   0.0666667   0.0666667), wk =   0.0327869
        k(   15) = (  -0.0333333   0.0333333   0.0333333), wk =   0.0327869
        k(   16) = (   0.0000000   0.0000000   0.0000000), wk =   0.0327869
        k(   17) = (  -0.0666667   0.0000000   0.0000000), wk =   0.0327869
        k(   18) = (  -0.1333333   0.0000000   0.0000000), wk =   0.0327869
        k(   19) = (  -0.2000000   0.0000000   0.0000000), wk =   0.0327869
        k(   20) = (  -0.2666667   0.0000000   0.0000000), wk =   0.0327869
        k(   21) = (  -0.3333333   0.0000000   0.0000000), wk =   0.0327869
        k(   22) = (  -0.4000000   0.0000000   0.0000000), wk =   0.0327869
        k(   23) = (  -0.4666667   0.0000000   0.0000000), wk =   0.0327869
        k(   24) = (  -0.5333333   0.0000000   0.0000000), wk =   0.0327869
        k(   25) = (  -0.6000000   0.0000000   0.0000000), wk =   0.0327869
        k(   26) = (  -0.6666667   0.0000000   0.0000000), wk =   0.0327869
        k(   27) = (  -0.7333333   0.0000000   0.0000000), wk =   0.0327869
        k(   28) = (  -0.8000000   0.0000000   0.0000000), wk =   0.0327869
        k(   29) = (  -0.8666667   0.0000000   0.0000000), wk =   0.0327869
        k(   30) = (  -0.9333333   0.0000000   0.0000000), wk =   0.0327869
        k(   31) = (  -1.0000000   0.0000000   0.0000000), wk =   0.0327869
        k(   32) = (  -0.9833333   0.0500000  -0.0000000), wk =   0.0327869
        k(   33) = (  -0.9666667   0.1000000   0.0000000), wk =   0.0327869
        k(   34) = (  -0.9500000   0.1500000  -0.0000000), wk =   0.0327869
        k(   35) = (  -0.9333333   0.2000000   0.0000000), wk =   0.0327869
        k(   36) = (  -0.9166667   0.2500000   0.0000000), wk =   0.0327869
        k(   37) = (  -0.9000000   0.3000000   0.0000000), wk =   0.0327869
        k(   38) = (  -0.8833333   0.3500000   0.0000000), wk =   0.0327869
        k(   39) = (  -0.8666667   0.4000000   0.0000000), wk =   0.0327869
        k(   40) = (  -0.8500000   0.4500000   0.0000000), wk =   0.0327869
        k(   41) = (  -0.8333333   0.5000000   0.0000000), wk =   0.0327869
        k(   42) = (  -0.8166667   0.5500000  -0.0000000), wk =   0.0327869
        k(   43) = (  -0.8000000   0.6000000   0.0000000), wk =   0.0327869
        k(   44) = (  -0.7833333   0.6500000  -0.0000000), wk =   0.0327869
        k(   45) = (  -0.7666667   0.7000000   0.0000000), wk =   0.0327869
        k(   46) = (  -0.7500000   0.7500000   0.0000000), wk =   0.0327869
        k(   47) = (  -0.7000000   0.7000000   0.0000000), wk =   0.0327869
        k(   48) = (  -0.6500000   0.6500000   0.0000000), wk =   0.0327869
        k(   49) = (  -0.6000000   0.6000000   0.0000000), wk =   0.0327869
        k(   50) = (  -0.5500000   0.5500000   0.0000000), wk =   0.0327869
        k(   51) = (  -0.5000000   0.5000000   0.0000000), wk =   0.0327869
        k(   52) = (  -0.4500000   0.4500000   0.0000000), wk =   0.0327869
        k(   53) = (  -0.4000000   0.4000000   0.0000000), wk =   0.0327869
        k(   54) = (  -0.3500000   0.3500000   0.0000000), wk =   0.0327869
        k(   55) = (  -0.3000000   0.3000000   0.0000000), wk =   0.0327869
        k(   56) = (  -0.2500000   0.2500000   0.0000000), wk =   0.0327869
        k(   57) = (  -0.2000000   0.2000000   0.0000000), wk =   0.0327869
        k(   58) = (  -0.1500000   0.1500000   0.0000000), wk =   0.0327869
        k(   59) = (  -0.1000000   0.1000000   0.0000000), wk =   0.0327869
        k(   60) = (  -0.0500000   0.0500000   0.0000000), wk =   0.0327869
        k(   61) = (   0.0000000   0.0000000   0.0000000), wk =   0.0327869

                       cryst. coord.
        k(    1) = (   0.5000000   0.5000000   0.5000000), wk =   0.0327869
        k(    2) = (   0.4666667   0.4666667   0.4666667), wk =   0.0327869
        k(    3) = (   0.4333333   0.4333333   0.4333333), wk =   0.0327869
        k(    4) = (   0.4000000   0.4000000   0.4000000), wk =   0.0327869
        k(    5) = (   0.3666667   0.3666667   0.3666667), wk =   0.0327869
        k(    6) = (   0.3333333   0.3333333   0.3333333), wk =   0.0327869
        k(    7) = (   0.3000000   0.3000000   0.3000000), wk =   0.0327869
        k(    8) = (   0.2666667   0.2666667   0.2666667), wk =   0.0327869
        k(    9) = (   0.2333333   0.2333333   0.2333333), wk =   0.0327869
        k(   10) = (   0.2000000   0.2000000   0.2000000), wk =   0.0327869
        k(   11) = (   0.1666667   0.1666667   0.1666667), wk =   0.0327869
        k(   12) = (   0.1333333   0.1333333   0.1333333), wk =   0.0327869
        k(   13) = (   0.1000000   0.1000000   0.1000000), wk =   0.0327869
        k(   14) = (   0.0666667   0.0666667   0.0666667), wk =   0.0327869
        k(   15) = (   0.0333333   0.0333333   0.0333333), wk =   0.0327869
        k(   16) = (   0.0000000   0.0000000   0.0000000), wk =   0.0327869
        k(   17) = (   0.0333333   0.0000000   0.0333333), wk =   0.0327869
        k(   18) = (   0.0666667   0.0000000   0.0666667), wk =   0.0327869
        k(   19) = (   0.1000000   0.0000000   0.1000000), wk =   0.0327869
        k(   20) = (   0.1333333   0.0000000   0.1333333), wk =   0.0327869
        k(   21) = (   0.1666667   0.0000000   0.1666667), wk =   0.0327869
        k(   22) = (   0.2000000   0.0000000   0.2000000), wk =   0.0327869
        k(   23) = (   0.2333333   0.0000000   0.2333333), wk =   0.0327869
        k(   24) = (   0.2666667   0.0000000   0.2666667), wk =   0.0327869
        k(   25) = (   0.3000000   0.0000000   0.3000000), wk =   0.0327869
        k(   26) = (   0.3333333   0.0000000   0.3333333), wk =   0.0327869
        k(   27) = (   0.3666667   0.0000000   0.3666667), wk =   0.0327869
        k(   28) = (   0.4000000   0.0000000   0.4000000), wk =   0.0327869
        k(   29) = (   0.4333333   0.0000000   0.4333333), wk =   0.0327869
        k(   30) = (   0.4666667   0.0000000   0.4666667), wk =   0.0327869
        k(   31) = (   0.5000000   0.0000000   0.5000000), wk =   0.0327869
        k(   32) = (   0.4916667   0.0250000   0.5166667), wk =   0.0327869
        k(   33) = (   0.4833333   0.0500000   0.5333333), wk =   0.0327869
        k(   34) = (   0.4750000   0.0750000   0.5500000), wk =   0.0327869
        k(   35) = (   0.4666667   0.1000000   0.5666667), wk =   0.0327869
        k(   36) = (   0.4583333   0.1250000   0.5833333), wk =   0.0327869
        k(   37) = (   0.4500000   0.1500000   0.6000000), wk =   0.0327869
        k(   38) = (   0.4416667   0.1750000   0.6166667), wk =   0.0327869
        k(   39) = (   0.4333333   0.2000000   0.6333333), wk =   0.0327869
        k(   40) = (   0.4250000   0.2250000   0.6500000), wk =   0.0327869
        k(   41) = (   0.4166667   0.2500000   0.6666667), wk =   0.0327869
        k(   42) = (   0.4083333   0.2750000   0.6833333), wk =   0.0327869
        k(   43) = (   0.4000000   0.3000000   0.7000000), wk =   0.0327869
        k(   44) = (   0.3916667   0.3250000   0.7166667), wk =   0.0327869
        k(   45) = (   0.3833333   0.3500000   0.7333333), wk =   0.0327869
        k(   46) = (   0.3750000   0.3750000   0.7500000), wk =   0.0327869
        k(   47) = (   0.3500000   0.3500000   0.7000000), wk =   0.0327869
        k(   48) = (   0.3250000   0.3250000   0.6500000), wk =   0.0327869
        k(   49) = (   0.3000000   0.3000000   0.6000000), wk =   0.0327869
        k(   50) = (   0.2750000   0.2750000   0.5500000), wk =   0.0327869
        k(   51) = (   0.2500000   0.2500000   0.5000000), wk =   0.0327869
        k(   52) = (   0.2250000   0.2250000   0.4500000), wk =   0.0327869
        k(   53) = (   0.2000000   0.2000000   0.4000000), wk =   0.0327869
        k(   54) = (   0.1750000   0.1750000   0.3500000), wk =   0.0327869
        k(   55) = (   0.1500000   0.1500000   0.3000000), wk =   0.0327869
        k(   56) = (   0.1250000   0.1250000   0.2500000), wk =   0.0327869
        k(   57) = (   0.1000000   0.1000000   0.2000000), wk =   0.0327869
        k(   58) = (   0.0750000   0.0750000   0.1500000), wk =   0.0327869
        k(   59) = (   0.0500000   0.0500000   0.1000000), wk =   0.0327869
        k(   60) = (   0.0250000   0.0250000   0.0500000), wk =   0.0327869
        k(   61) = (   0.0000000   0.0000000   0.0000000), wk =   0.0327869

     Dense  grid:     3287 G-vectors     FFT dimensions: (  24,  24,  24)

     Dynamical RAM for                 wfc:       0.06 MB

     Dynamical RAM for     wfc (w. buffer):       0.06 MB

     Dynamical RAM for           str. fact:       0.05 MB

     Dynamical RAM for           local pot:       0.00 MB

     Dynamical RAM for          nlocal pot:       0.22 MB

     Dynamical RAM for                qrad:       0.72 MB

     Dynamical RAM for          rho,v,vnew:       0.47 MB

     Dynamical RAM for           G-vectors:       0.21 MB

     Dynamical RAM for          h,s,v(r/c):       0.02 MB

     Dynamical RAM for          <psi|beta>:       0.01 MB

     Dynamical RAM for                 psi:       0.12 MB

     Dynamical RAM for                hpsi:       0.12 MB

     Dynamical RAM for      wfcinit/wfcrot:       0.13 MB

     Estimated static dynamical RAM per process >       2.36 MB

     Estimated max dynamical RAM per process >       2.64 MB

     The potential is recalculated from file :
     ./out/si.save/charge-density

     Starting wfcs are    8 randomized atomic wfcs +    2 random wfcs

     Band Structure Calculation
     Davidson diagonalization with overlap

     Computing kpt #:     1  of    61
     total cpu time spent up to now is        0.2 secs

     Computing kpt #:     2  of    61
     total cpu time spent up to now is        0.3 secs

     Computing kpt #:     3  of    61
     total cpu time spent up to now is        0.3 secs

     Computing kpt #:     4  of    61
     total cpu time spent up to now is        0.3 secs

     Computing kpt #:     5  of    61
     total cpu time spent up to now is        0.4 secs

     Computing kpt #:     6  of    61
     total cpu time spent up to now is        0.4 secs

     Computing kpt #:     7  of    61
     total cpu time spent up to now is        0.5 secs

     Computing kpt #:     8  of    61
     total cpu time spent up to now is        0.5 secs

     Computing kpt #:     9  of    61
     total cpu time spent up to now is        0.6 secs

     Computing kpt #:    10  of    61
     total cpu time spent up to now is        0.6 secs

     Computing kpt #:    11  of    61
     total cpu time spent up to now is        0.6 secs

     Computing kpt #:    12  of    61
     total cpu time spent up to now is        0.7 secs

     Computing kpt #:    13  of    61
     total cpu time spent up to now is        0.7 secs

     Computing kpt #:    14  of    61
     total cpu time spent up to now is        0.8 secs

     Computing kpt #:    15  of    61
     total cpu time spent up to now is        0.8 secs

     Computing kpt #:    16  of    61
     total cpu time spent up to now is        0.9 secs

     Computing kpt #:    17  of    61
     total cpu time spent up to now is        0.9 secs

     Computing kpt #:    18  of    61
     total cpu time spent up to now is        1.0 secs

     Computing kpt #:    19  of    61
     total cpu time spent up to now is        1.0 secs

     Computing kpt #:    20  of    61
     total cpu time spent up to now is        1.1 secs

     Computing kpt #:    21  of    61
     total cpu time spent up to now is        1.1 secs

     Computing kpt #:    22  of    61
     total cpu time spent up to now is        1.1 secs

     Computing kpt #:    23  of    61
     total cpu time spent up to now is        1.2 secs

     Computing kpt #:    24  of    61
     total cpu time spent up to now is        1.2 secs

     Computing kpt #:    25  of    61
     total cpu time spent up to now is        1.3 secs

     Computing kpt #:    26  of    61
     total cpu time spent up to now is        1.3 secs

     Computing kpt #:    27  of    61
     total cpu time spent up to now is        1.4 secs

     Computing kpt #:    28  of    61
     total cpu time spent up to now is        1.4 secs

     Computing kpt #:    29  of    61
     total cpu time spent up to now is        1.5 secs

     Computing kpt #:    30  of    61
     total cpu time spent up to now is        1.5 secs

     Computing kpt #:    31  of    61
     total cpu time spent up to now is        1.6 secs

     Computing kpt #:    32  of    61
     total cpu time spent up to now is        1.6 secs

     Computing kpt #:    33  of    61
     total cpu time spent up to now is        1.7 secs

     Computing kpt #:    34  of    61
     total cpu time spent up to now is        1.7 secs

     Computing kpt #:    35  of    61
     total cpu time spent up to now is        1.8 secs

     Computing kpt #:    36  of    61
     total cpu time spent up to now is        1.8 secs

     Computing kpt #:    37  of    61
     total cpu time spent up to now is        1.9 secs

     Computing kpt #:    38  of    61
     total cpu time spent up to now is        1.9 secs

     Computing kpt #:    39  of    61
     total cpu time spent up to now is        2.0 secs

     Computing kpt #:    40  of    61
     total cpu time spent up to now is        2.0 secs

     Computing kpt #:    41  of    61
     total cpu time spent up to now is        2.0 secs

     Computing kpt #:    42  of    61
     total cpu time spent up to now is        2.1 secs

     Computing kpt #:    43  of    61
     total cpu time spent up to now is        2.1 secs

     Computing kpt #:    44  of    61
     total cpu time spent up to now is        2.2 secs

     Computing kpt #:    45  of    61
     total cpu time spent up to now is        2.2 secs

     Computing kpt #:    46  of    61
     total cpu time spent up to now is        2.3 secs

     Computing kpt #:    47  of    61
     total cpu time spent up to now is        2.3 secs

     Computing kpt #:    48  of    61
     total cpu time spent up to now is        2.3 secs

     Computing kpt #:    49  of    61
     total cpu time spent up to now is        2.4 secs

     Computing kpt #:    50  of    61
     total cpu time spent up to now is        2.4 secs

     Computing kpt #:    51  of    61
     total cpu time spent up to now is        2.4 secs

     Computing kpt #:    52  of    61
     total cpu time spent up to now is        2.5 secs

     Computing kpt #:    53  of    61
     total cpu time spent up to now is        2.5 secs

     Computing kpt #:    54  of    61
     total cpu time spent up to now is        2.6 secs

     Computing kpt #:    55  of    61
     total cpu time spent up to now is        2.6 secs

     Computing kpt #:    56  of    61
     total cpu time spent up to now is        2.7 secs

     Computing kpt #:    57  of    61
     total cpu time spent up to now is        2.7 secs

     Computing kpt #:    58  of    61
     total cpu time spent up to now is        2.7 secs

     Computing kpt #:    59  of    61
     total cpu time spent up to now is        2.8 secs

     Computing kpt #:    60  of    61
     total cpu time spent up to now is        2.9 secs

     Computing kpt #:    61  of    61
     total cpu time spent up to now is        2.9 secs

     ethr =  2.00E-10,  avg # of iterations = 37.3

     total cpu time spent up to now is        2.9 secs

     End of band structure calculation

          k =-0.5000 0.5000 0.5000 (   410 PWs)   bands (ev):

    -3.5818  -0.9489   4.8504   4.8504   7.4814   9.3703   9.3703  13.5794
    16.6650  16.6650

          k =-0.4667 0.4667 0.4667 (   410 PWs)   bands (ev):

    -3.6444  -0.8588   4.8584   4.8584   7.4907   9.3795   9.3795  13.5939
    16.2454  16.2454

          k =-0.4333 0.4333 0.4333 (   413 PWs)   bands (ev):

    -3.8100  -0.6110   4.8825   4.8825   7.5124   9.4059   9.4059  13.6349
    15.6441  15.6441

          k =-0.4000 0.4000 0.4000 (   413 PWs)   bands (ev):

    -4.0360  -0.2482   4.9223   4.9223   7.5582   9.4458   9.4458  13.6949
    15.0619  15.0619

          k =-0.3667 0.3667 0.3667 (   407 PWs)   bands (ev):

    -4.2860   0.1935   4.9783   4.9783   7.6219   9.4927   9.4927  13.7505
    14.5316  14.5316

          k =-0.3333 0.3333 0.3333 (   407 PWs)   bands (ev):

    -4.5399   0.6910   5.0492   5.0492   7.7031   9.5360   9.5360  13.7330
    14.0634  14.0634

          k =-0.3000 0.3000 0.3000 (   401 PWs)   bands (ev):

    -4.7839   1.2309   5.1353   5.1353   7.8021   9.5626   9.5626  13.5085
    13.6768  13.6768

          k =-0.2667 0.2667 0.2667 (   407 PWs)   bands (ev):

    -5.0114   1.8031   5.2353   5.2353   7.9144   9.5518   9.5518  13.0632
    13.3854  13.3854

          k =-0.2333 0.2333 0.2333 (   401 PWs)   bands (ev):

    -5.2173   2.4017   5.3480   5.3480   8.0396   9.4960   9.4960  12.5209
    13.2114  13.2114

          k =-0.2000 0.2000 0.2000 (   402 PWs)   bands (ev):

    -5.3996   3.0194   5.4709   5.4709   8.1767   9.3869   9.3869  11.9420
    13.1466  13.1466

          k =-0.1667 0.1667 0.1667 (   396 PWs)   bands (ev):

    -5.5552   3.6485   5.6012   5.6012   8.3135   9.2342   9.2342  11.3488
    13.1895  13.1895

          k =-0.1333 0.1333 0.1333 (   402 PWs)   bands (ev):

    -5.6846   4.2780   5.7315   5.7315   8.4443   9.0564   9.0564  10.7546
    13.3078  13.3078

          k =-0.1000 0.1000 0.1000 (   405 PWs)   bands (ev):

    -5.7857   4.8905   5.8543   5.8543   8.5556   8.8782   8.8782  10.1815
    13.4751  13.4751

          k =-0.0667 0.0667 0.0667 (   411 PWs)   bands (ev):

    -5.8584   5.4494   5.9581   5.9581   8.6233   8.7248   8.7248   9.6737
    13.6519  13.6519

          k =-0.0333 0.0333 0.0333 (   411 PWs)   bands (ev):

    -5.9021   5.8811   6.0291   6.0291   8.6188   8.6209   8.6209   9.3264
    13.7912  13.7944

          k = 0.0000 0.0000 0.0000 (   411 PWs)   bands (ev):

    -5.9167   6.0545   6.0545   6.0545   8.5839   8.5839   8.5839   9.2159
    13.7246  13.8495

          k =-0.0667 0.0000 0.0000 (   411 PWs)   bands (ev):

    -5.8973   5.9194   5.9715   5.9715   8.5335   8.6907   8.6907   9.3475
    13.6847  13.8133

          k =-0.1333 0.0000 0.0000 (   407 PWs)   bands (ev):

    -5.8389   5.5688   5.7572   5.7572   8.3930   8.9771   8.9771   9.6789
    13.2841  13.9370

          k =-0.2000 0.0000 0.0000 (   399 PWs)   bands (ev):

    -5.7416   5.0948   5.4731   5.4731   8.1881   9.3799   9.3799  10.0720
    12.8209  14.0512

          k =-0.2667 0.0000 0.0000 (   399 PWs)   bands (ev):

    -5.6064   4.5582   5.1633   5.1633   7.9462   9.8536   9.8536  10.3357
    12.5091  14.2043

          k =-0.3333 0.0000 0.0000 (   399 PWs)   bands (ev):

    -5.4328   3.9898   4.8536   4.8536   7.6924  10.2494  10.3711  10.3711
    12.5919  14.3977

          k =-0.4000 0.0000 0.0000 (   407 PWs)   bands (ev):

    -5.2223   3.4046   4.5571   4.5571   7.4433   9.8603  10.9176  10.9176
    13.0323  14.6340

          k =-0.4667 0.0000 0.0000 (   415 PWs)   bands (ev):

    -4.9742   2.8109   4.2822   4.2822   7.2106   9.3617  11.4854  11.4854
    13.6397  14.9129

          k =-0.5333 0.0000 0.0000 (   415 PWs)   bands (ev):

    -4.6895   2.2139   4.0336   4.0336   7.0046   8.8588  12.0698  12.0698
    14.3143  15.2348

          k =-0.6000 0.0000 0.0000 (   415 PWs)   bands (ev):

    -4.3692   1.6170   3.8142   3.8142   6.8307   8.3869  12.6667  12.6667
    15.0145  15.5992

          k =-0.6667 0.0000 0.0000 (   419 PWs)   bands (ev):

    -4.0147   1.0221   3.6261   3.6261   6.6920   7.9614  13.2680  13.2680
    15.7200  16.0047

          k =-0.7333 0.0000 0.0000 (   420 PWs)   bands (ev):

    -3.6269   0.4352   3.4705   3.4705   6.5947   7.5905  13.8832  13.8832
    16.4148  16.4536

          k =-0.8000 0.0000 0.0000 (   416 PWs)   bands (ev):

    -3.2073  -0.1415   3.3487   3.3487   6.5418   7.2791  14.5054  14.5054
    16.9443  17.0893

          k =-0.8667 0.0000 0.0000 (   412 PWs)   bands (ev):

    -2.7577  -0.7040   3.2613   3.2613   6.5360   7.0200  15.1241  15.1241
    17.4915  17.7321

          k =-0.9333 0.0000 0.0000 (   412 PWs)   bands (ev):

    -2.2801  -1.2503   3.2086   3.2086   6.5780   6.8190  15.7045  15.7045
    17.4214  17.4214

          k =-1.0000 0.0000 0.0000 (   412 PWs)   bands (ev):

    -1.7767  -1.7767   3.1911   3.1911   6.6720   6.6720  16.0306  16.0306
    17.0952  17.0952

          k =-0.9833 0.0500-0.0000 (   405 PWs)   bands (ev):

    -1.9001  -1.6432   3.1570   3.1591   6.7074   6.7664  15.8748  15.9417
    16.9443  17.0162

          k =-0.9667 0.1000 0.0000 (   411 PWs)   bands (ev):

    -2.0136  -1.5057   3.0594   3.0750   6.8623   6.9743  15.3648  15.7364
    16.6095  17.0057

          k =-0.9500 0.1500-0.0000 (   411 PWs)   bands (ev):

    -2.1134  -1.3665   2.9139   2.9625   7.1227   7.2782  14.6595  15.4339
    16.2740  17.1003

          k =-0.9333 0.2000 0.0000 (   411 PWs)   bands (ev):

    -2.1991  -1.2318   2.7403   2.8464   7.4661   7.6578  13.8890  15.0375
    15.9978  17.2088

          k =-0.9167 0.2500 0.0000 (   411 PWs)   bands (ev):

    -2.2700  -1.1086   2.5558   2.7483   7.8740   8.0965  13.1025  14.5800
    15.7722  17.2685

          k =-0.9000 0.3000 0.0000 (   409 PWs)   bands (ev):

    -2.3256  -1.0046   2.3734   2.6854   8.3325   8.5823  12.3233  14.0974
    15.5741  17.2306

          k =-0.8833 0.3500 0.0000 (   408 PWs)   bands (ev):

    -2.3664  -0.9268   2.2019   2.6705   8.8303   9.1019  11.5639  13.6088
    15.3844  17.0810

          k =-0.8667 0.4000 0.0000 (   406 PWs)   bands (ev):

    -2.3919  -0.8800   2.0478   2.7105   9.3593   9.6283  10.8553  13.1293
    15.1980  16.8544

          k =-0.8500 0.4500 0.0000 (   406 PWs)   bands (ev):

    -2.4029  -0.8650   1.9156   2.8059   9.8521   9.9103  10.5066  12.6663
    15.0062  16.5700

          k =-0.8333 0.5000 0.0000 (   406 PWs)   bands (ev):

    -2.3997  -0.8795   1.8086   2.9501   9.3134  10.4695  10.9867  12.2319
    14.8104  16.2397

          k =-0.8167 0.5500-0.0000 (   407 PWs)   bands (ev):

    -2.3827  -0.9175   1.7293   3.1292   8.7025  10.9813  11.6110  11.8803
    14.6100  15.8826

          k =-0.8000 0.6000 0.0000 (   410 PWs)   bands (ev):

    -2.3529  -0.9726   1.6792   3.3216   8.1440  11.1086  11.9441  12.2690
    14.4064  15.5115

          k =-0.7833 0.6500-0.0000 (   408 PWs)   bands (ev):

    -2.3094  -1.0387   1.6598   3.4963   7.6741  10.8145  12.4573  12.9473
    14.2058  15.1425

          k =-0.7667 0.7000 0.0000 (   406 PWs)   bands (ev):

    -2.2532  -1.1115   1.6717   3.6108   7.3350  10.4638  13.0331  13.6257
    14.0266  14.7889

          k =-0.7500 0.7500 0.0000 (   409 PWs)   bands (ev):

    -2.1853  -1.1884   1.7150   3.6193   7.1715  10.1189  13.4699  14.0023
    14.1492  14.6047

          k =-0.7000 0.7000 0.0000 (   403 PWs)   bands (ev):

    -2.4434  -0.9305   1.6044   3.7994   7.3817  11.1429  12.8715  13.3920
    13.6642  14.0803

          k =-0.6500 0.6500 0.0000 (   403 PWs)   bands (ev):

    -2.7632  -0.6270   1.6221   4.0047   7.6210  12.0750  12.3008  12.9518
    13.2023  13.6018

          k =-0.6000 0.6000 0.0000 (   407 PWs)   bands (ev):

    -3.1227  -0.2788   1.7516   4.2308   7.8826  11.7647  12.0415  12.7742
    13.1778  13.5359

          k =-0.5500 0.5500 0.0000 (   407 PWs)   bands (ev):

    -3.4989   0.1149   1.9727   4.4719   8.1575  11.2662  11.5782  12.3948
    12.8165  14.5864

          k =-0.5000 0.5000 0.0000 (   407 PWs)   bands (ev):

    -3.8732   0.5523   2.2678   4.7206   8.4295  10.8071  11.1158  12.0740
    12.5238  15.5908

          k =-0.4500 0.4500 0.0000 (   409 PWs)   bands (ev):

    -4.2331   1.0329   2.6223   4.9682   8.6772  10.3893  10.6862  11.8309
    12.3137  16.3341

          k =-0.4000 0.4000 0.0000 (   409 PWs)   bands (ev):

    -4.5688   1.5550   3.0248   5.2050   8.8748  10.0135  10.2947  11.6793
    12.1929  16.5877

          k =-0.3500 0.3500 0.0000 (   397 PWs)   bands (ev):

    -4.8732   2.1177   3.4648   5.4217   8.9992   9.6823   9.9462  11.6177
    12.1756  15.7219

          k =-0.3000 0.3000 0.0000 (   399 PWs)   bands (ev):

    -5.1440   2.7156   3.9302   5.6087   9.0414   9.3927   9.6314  11.5967
    12.2538  14.7892

          k =-0.2500 0.2500 0.0000 (   399 PWs)   bands (ev):

    -5.3767   3.3462   4.4081   5.7609   9.0217   9.1464   9.3566  11.4842
    12.4318  14.0830

          k =-0.2000 0.2000 0.0000 (   395 PWs)   bands (ev):

    -5.5691   4.0011   4.8807   5.8777   8.9451   8.9646   9.1159  11.1214
    12.7048  13.7301

          k =-0.1500 0.1500 0.0000 (   403 PWs)   bands (ev):

    -5.7205   4.6637   5.3224   5.9604   8.7870   8.8897   8.9092  10.5224
    13.0438  13.6742

          k =-0.1000 0.1000 0.0000 (   409 PWs)   bands (ev):

    -5.8293   5.3016   5.6982   6.0146   8.6738   8.7422   8.8012   9.8720
    13.4035  13.7450

          k =-0.0500 0.0500 0.0000 (   411 PWs)   bands (ev):

    -5.8948   5.8283   5.9594   6.0449   8.6064   8.6266   8.6780   9.3804
    13.7177  13.8196

          k = 0.0000 0.0000 0.0000 (   411 PWs)   bands (ev):

    -5.9167   6.0545   6.0545   6.0545   8.5839   8.5839   8.5839   9.2159
    13.7246  13.8495

     Writing all to output data dir ./out/si.save/
 
     init_run     :      0.02s CPU      0.02s WALL (       1 calls)
     electrons    :      2.69s CPU      2.75s WALL (       1 calls)

     Called by init_run:
     wfcinit      :      0.00s CPU      0.00s WALL (       1 calls)
     wfcinit:atom :      0.00s CPU      0.00s WALL (      61 calls)
     wfcinit:wfcr :      0.09s CPU      0.10s WALL (      61 calls)
     potinit      :      0.00s CPU      0.00s WALL (       1 calls)
     hinit0       :      0.01s CPU      0.01s WALL (       1 calls)

     Called by electrons:
     c_bands      :      2.69s CPU      2.75s WALL (       1 calls)
     v_of_rho     :      0.00s CPU      0.00s WALL (       1 calls)
     v_h          :      0.00s CPU      0.00s WALL (       1 calls)
     v_xc         :      0.00s CPU      0.00s WALL (       1 calls)

     Called by c_bands:
     init_us_2    :      0.00s CPU      0.01s WALL (      61 calls)
     init_us_2:cp :      0.00s CPU      0.01s WALL (      61 calls)
     cegterg      :      2.54s CPU      2.59s WALL (     143 calls)

     Called by sum_band:

     Called by *egterg:
     cdiaghg      :      0.25s CPU      0.26s WALL (    2336 calls)
     cegterg:over :      0.07s CPU      0.07s WALL (    2275 calls)
     cegterg:upda :      0.05s CPU      0.05s WALL (    2275 calls)
     cegterg:last :      0.06s CPU      0.06s WALL (    1422 calls)
     h_psi        :      2.14s CPU      2.19s WALL (    2479 calls)
     g_psi        :      0.01s CPU      0.01s WALL (    2275 calls)

     Called by h_psi:
     h_psi:calbec :      0.07s CPU      0.07s WALL (    2479 calls)
     vloc_psi     :      1.99s CPU      2.03s WALL (    2479 calls)
     add_vuspsi   :      0.06s CPU      0.06s WALL (    2479 calls)

     General routines
     calbec       :      0.07s CPU      0.07s WALL (    2479 calls)
     fft          :      0.00s CPU      0.00s WALL (       4 calls)
     fftw         :      1.74s CPU      1.78s WALL (   28864 calls)
     davcio       :      0.01s CPU      0.01s WALL (     122 calls)
 
     Parallel routines
 
     PWSCF        :      2.81s CPU      2.94s WALL

 
   This run was terminated on:  11:38:26   2Nov2022            

=------------------------------------------------------------------------------=
   JOB DONE.
=------------------------------------------------------------------------------=
